
     Program PWSCF v.6.3MaX starts on 26Mar2019 at 12:30:47 

     This program is part of the open-source Quantum ESPRESSO suite
     for quantum simulation of materials; please cite
         "P. Giannozzi et al., J. Phys.:Condens. Matter 21 395502 (2009);
         "P. Giannozzi et al., J. Phys.:Condens. Matter 29 465901 (2017);
          URL http://www.quantum-espresso.org", 
     in publications or presentations arising from this work. More details at
     http://www.quantum-espresso.org/quote

     Parallel version (MPI), running on    16 processors

     MPI processes distributed on     1 nodes
     R & G space division:  proc/nbgrp/npool/nimage =      16
     Waiting for input...
     Reading input from standard input

     Current dimensions of program PWSCF are:
     Max number of different atomic species (ntypx) = 10
     Max number of k-points (npk) =  40000
     Max angular momentum in pseudopotentials (lmaxx) =  3
     Message from routine read_upf::
     Pseudo file ./pseudo/Mn.pbe-spn-kjpaw_psl.0.3.1.UPF has been successfully fixed on the fly.
To avoid this message in the future you can permanently fix 
 your pseudo files following instructions given in: 
https://gitlab.com/QEF/q-e/blob/master/upftools/how_to_fix_upf.md
               file Mn.pbe-spn-kjpaw_psl.0.3.1.UPF: wavefunction(s)  3P 3D renormalized
     Message from routine read_upf::
     Pseudo file ./pseudo/Au.pbe-dn-kjpaw_psl.0.1.UPF has been successfully fixed on the fly.
To avoid this message in the future you can permanently fix 
 your pseudo files following instructions given in: 
https://gitlab.com/QEF/q-e/blob/master/upftools/how_to_fix_upf.md
               file Au.pbe-dn-kjpaw_psl.0.1.UPF: wavefunction(s)  6S 6P 5D renormalized

     Subspace diagonalization in iterative solution of the eigenvalue problem:
     one sub-group per band group will be used
     scalapack distributed-memory algorithm (size of sub-group:  2*  2 procs)

     Found symmetry operation: I + (  0.5000  0.0000  0.0000)
     This is a supercell, fractional translations are disabled
 
     Parallelization info
     --------------------
     sticks:   dense  smooth     PW     G-vecs:    dense   smooth      PW
     Min         646     290     84                22663     6843    1075
     Max         647     291     85                22664     6844    1077
     Sum       10349    4645   1353               362619   109493   17211
 


     bravais-lattice index     =            0
     lattice parameter (alat)  =      18.0125  a.u.
     unit-cell volume          =    2685.0513 (a.u.)^3
     number of atoms/cell      =           24
     number of atomic types    =            2
     number of electrons       =       296.00
     number of Kohn-Sham states=          178
     kinetic-energy cutoff     =      45.0000  Ry
     charge density cutoff     =     400.0000  Ry
     convergence threshold     =      1.0E-06
     mixing beta               =       0.1000
     number of iterations used =            8  plain     mixing
     Exchange-correlation      = SLA PW PBX PBC ( 1  4  3  4 0 0)

     celldm(1)=  18.012490  celldm(2)=   0.000000  celldm(3)=   0.000000
     celldm(4)=   0.000000  celldm(5)=   0.000000  celldm(6)=   0.000000

     crystal axes: (cart. coord. in units of alat)
               a(1) = (   0.707107  -0.707107   0.000000 )  
               a(2) = (  -0.707107  -0.707107   0.000000 )  
               a(3) = (   0.176777   0.176777  -0.459443 )  

     reciprocal axes: (cart. coord. in units 2 pi/alat)
               b(1) = (  0.707107 -0.707107  0.000000 )  
               b(2) = ( -0.707107 -0.707107 -0.544138 )  
               b(3) = (  0.000000  0.000000 -2.176550 )  


     PseudoPot. # 1 for Mn read from file:
     ./pseudo/Mn.pbe-spn-kjpaw_psl.0.3.1.UPF
     MD5 check sum: 7eef95dd2aae66803482eea66ebeebf1
     Pseudo is Projector augmented-wave + core cor, Zval = 15.0
     Generated using "atomic" code by A. Dal Corso v.5.0.99 svn rev. 10869
     Shape of augmentation charge: PSQ
     Using radial grid of 1187 points,  6 beta functions with: 
                l(1) =   0
                l(2) =   0
                l(3) =   1
                l(4) =   1
                l(5) =   2
                l(6) =   2
     Q(r) pseudized with 0 coefficients 


     PseudoPot. # 2 for Au read from file:
     ./pseudo/Au.pbe-dn-kjpaw_psl.0.1.UPF
     MD5 check sum: 5c9b92683623e7ae2ab3f8e525febab6
     Pseudo is Projector augmented-wave + core cor, Zval = 11.0
     Generated using "atomic" code by A. Dal Corso v.5.0.2 svn rev. 9415
     Shape of augmentation charge: PSQ
     Using radial grid of 1279 points,  6 beta functions with: 
                l(1) =   0
                l(2) =   0
                l(3) =   1
                l(4) =   1
                l(5) =   2
                l(6) =   2
     Q(r) pseudized with 0 coefficients 


     atomic species   valence    mass     pseudopotential
        Mn            15.00    54.93800     Mn( 1.00)
        Au            11.00   196.96600     Au( 1.00)

     Starting magnetic structure 
     atomic species   magnetization
        Mn           1.000
        Au           0.000


     Full LDA+U calculation (l_max = 2) with parameters (eV):
     U(  1) =   3.1200   J(  1) =   0.7000   B(  1) =   0.0803



      4 Sym. Ops., with inversion, found



   Cartesian axes

     site n.     atom                  positions (alat units)
         1           Mn  tau(   1) = (   0.3535534  -0.3535534   0.0000000  )
         2           Mn  tau(   2) = (   0.0000000   0.0000000   0.0000000  )
         3           Mn  tau(   3) = (   0.0000000  -0.3535534   0.0000000  )
         4           Mn  tau(   4) = (   0.3535534  -0.7071068   0.0000000  )
         5           Mn  tau(   5) = (  -0.3535534  -0.3535534   0.0000000  )
         6           Mn  tau(   6) = (   0.0000000  -0.7071068   0.0000000  )
         7           Mn  tau(   7) = (  -0.3535534  -0.7071068   0.0000000  )
         8           Mn  tau(   8) = (   0.0000000  -1.0606602   0.0000000  )
         9           Au  tau(   9) = (  -0.1767767  -0.1767767  -0.1470216  )
        10           Au  tau(  10) = (   0.1767767  -0.5303301  -0.1470216  )
        11           Au  tau(  11) = (  -0.1767767  -0.5303301  -0.1470216  )
        12           Au  tau(  12) = (   0.1767767  -0.8838835  -0.1470216  )
        13           Au  tau(  13) = (  -0.5303301  -0.5303301  -0.1470216  )
        14           Au  tau(  14) = (  -0.1767767  -0.8838835  -0.1470216  )
        15           Au  tau(  15) = (   0.5303301  -0.5303301  -0.1470216  )
        16           Au  tau(  16) = (   0.1767767  -0.1767767  -0.1470216  )
        17           Au  tau(  17) = (   0.3535534  -0.3535534  -0.3124210  )
        18           Au  tau(  18) = (   0.0000000   0.0000000  -0.3124210  )
        19           Au  tau(  19) = (   0.0000000  -0.3535534  -0.3124210  )
        20           Au  tau(  20) = (   0.3535534  -0.7071068  -0.3124210  )
        21           Au  tau(  21) = (  -0.3535534  -0.3535534  -0.3124210  )
        22           Au  tau(  22) = (  -0.0000000  -0.7071068  -0.3124210  )
        23           Au  tau(  23) = (  -0.3535534  -0.7071068  -0.3124210  )
        24           Au  tau(  24) = (   0.0000000  -1.0606602  -0.3124210  )

     number of k points=    30 (tetrahedron method)
                       cart. coord. in units 2pi/alat
        k(    1) = (   0.0000000   0.0000000   0.0000000), wk =   0.0156250
        k(    2) = (   0.0000000   0.0000000  -0.5441376), wk =   0.0312500
        k(    3) = (   0.0000000   0.0000000   1.0882752), wk =   0.0156250
        k(    4) = (  -0.1767767  -0.1767767  -0.1360344), wk =   0.0312500
        k(    5) = (  -0.1767767  -0.1767767  -0.6801720), wk =   0.0312500
        k(    6) = (  -0.1767767  -0.1767767   0.9522408), wk =   0.0312500
        k(    7) = (  -0.1767767  -0.1767767   0.4081032), wk =   0.0312500
        k(    8) = (   0.3535534   0.3535534   0.2720688), wk =   0.0156250
        k(    9) = (   0.3535534   0.3535534  -0.2720688), wk =   0.0312500
        k(   10) = (   0.3535534   0.3535534   1.3603439), wk =   0.0156250
        k(   11) = (   0.1767767  -0.1767767   0.0000000), wk =   0.0312500
        k(   12) = (   0.1767767  -0.1767767  -0.5441376), wk =   0.0625000
        k(   13) = (   0.1767767  -0.1767767   1.0882752), wk =   0.0312500
        k(   14) = (   0.0000000  -0.3535534  -0.1360344), wk =   0.0625000
        k(   15) = (   0.0000000  -0.3535534  -0.6801720), wk =   0.0625000
        k(   16) = (   0.0000000  -0.3535534   0.9522408), wk =   0.0625000
        k(   17) = (   0.0000000  -0.3535534   0.4081032), wk =   0.0625000
        k(   18) = (   0.5303301   0.1767767   0.2720688), wk =   0.0312500
        k(   19) = (   0.5303301   0.1767767  -0.2720688), wk =   0.0625000
        k(   20) = (   0.5303301   0.1767767   1.3603439), wk =   0.0312500
        k(   21) = (  -0.3535534   0.3535534   0.0000000), wk =   0.0156250
        k(   22) = (  -0.3535534   0.3535534  -0.5441376), wk =   0.0312500
        k(   23) = (  -0.3535534   0.3535534   1.0882752), wk =   0.0156250
        k(   24) = (  -0.5303301   0.1767767  -0.1360344), wk =   0.0312500
        k(   25) = (  -0.5303301   0.1767767  -0.6801720), wk =   0.0312500
        k(   26) = (  -0.5303301   0.1767767   0.9522408), wk =   0.0312500
        k(   27) = (  -0.5303301   0.1767767   0.4081032), wk =   0.0312500
        k(   28) = (   0.0000000   0.7071068   0.2720688), wk =   0.0156250
        k(   29) = (   0.0000000   0.7071068  -0.2720688), wk =   0.0312500
        k(   30) = (   0.0000000   0.7071068   1.3603439), wk =   0.0156250

     Dense  grid:   362619 G-vectors     FFT dimensions: ( 120, 120,  60)

     Smooth grid:   109493 G-vectors     FFT dimensions: (  80,  80,  45)

     Estimated max dynamical RAM per process >     281.58 MB

     Estimated total dynamical RAM >       4.40 GB
     Generating pointlists ...
     new r_m :   0.1196 (alat units)  2.1549 (a.u.) for type    1
     new r_m :   0.1196 (alat units)  2.1549 (a.u.) for type    2

     Check: negative/imaginary core charge=   -0.000006    0.000000

     Initial potential from superposition of free atoms

     starting charge  295.99426, renormalised to  296.00000
     Number of +U iterations with fixed ns =  0
     Starting occupations:
 --- enter write_ns ---
 LDA+U parameters:
U(  1) =   3.1200   J(  1) =   0.7000   B(  1) =   0.0803
atom    1   Tr[ns(na)] (up, down, total) =   5.00000  0.00000  5.00000
   spin  1
    eigenvalues: 
  1.000  1.000  1.000  1.000  1.000
    eigenvectors:
  1.000  0.000  0.000  0.000  0.000
  0.000  1.000  0.000  0.000  0.000
  0.000  0.000  1.000  0.000  0.000
  0.000  0.000  0.000  1.000  0.000
  0.000  0.000  0.000  0.000  1.000
    occupations:
  1.000  0.000  0.000  0.000  0.000
  0.000  1.000  0.000  0.000  0.000
  0.000  0.000  1.000  0.000  0.000
  0.000  0.000  0.000  1.000  0.000
  0.000  0.000  0.000  0.000  1.000
   spin  2
    eigenvalues: 
  0.000  0.000  0.000  0.000  0.000
    eigenvectors:
  1.000  0.000  0.000  0.000  0.000
  0.000  1.000  0.000  0.000  0.000
  0.000  0.000  1.000  0.000  0.000
  0.000  0.000  0.000  1.000  0.000
  0.000  0.000  0.000  0.000  1.000
    occupations:
  0.000  0.000  0.000  0.000  0.000
  0.000  0.000  0.000  0.000  0.000
  0.000  0.000  0.000  0.000  0.000
  0.000  0.000  0.000  0.000  0.000
  0.000  0.000  0.000  0.000  0.000
atomic mag. moment =     5.000000
atom    2   Tr[ns(na)] (up, down, total) =   5.00000  0.00000  5.00000
   spin  1
    eigenvalues: 
  1.000  1.000  1.000  1.000  1.000
    eigenvectors:
  1.000  0.000  0.000  0.000  0.000
  0.000  1.000  0.000  0.000  0.000
  0.000  0.000  1.000  0.000  0.000
  0.000  0.000  0.000  1.000  0.000
  0.000  0.000  0.000  0.000  1.000
    occupations:
  1.000  0.000  0.000  0.000  0.000
  0.000  1.000  0.000  0.000  0.000
  0.000  0.000  1.000  0.000  0.000
  0.000  0.000  0.000  1.000  0.000
  0.000  0.000  0.000  0.000  1.000
   spin  2
    eigenvalues: 
  0.000  0.000  0.000  0.000  0.000
    eigenvectors:
  1.000  0.000  0.000  0.000  0.000
  0.000  1.000  0.000  0.000  0.000
  0.000  0.000  1.000  0.000  0.000
  0.000  0.000  0.000  1.000  0.000
  0.000  0.000  0.000  0.000  1.000
    occupations:
  0.000  0.000  0.000  0.000  0.000
  0.000  0.000  0.000  0.000  0.000
  0.000  0.000  0.000  0.000  0.000
  0.000  0.000  0.000  0.000  0.000
  0.000  0.000  0.000  0.000  0.000
atomic mag. moment =     5.000000
atom    3   Tr[ns(na)] (up, down, total) =   5.00000  0.00000  5.00000
   spin  1
    eigenvalues: 
  1.000  1.000  1.000  1.000  1.000
    eigenvectors:
  1.000  0.000  0.000  0.000  0.000
  0.000  1.000  0.000  0.000  0.000
  0.000  0.000  1.000  0.000  0.000
  0.000  0.000  0.000  1.000  0.000
  0.000  0.000  0.000  0.000  1.000
    occupations:
  1.000  0.000  0.000  0.000  0.000
  0.000  1.000  0.000  0.000  0.000
  0.000  0.000  1.000  0.000  0.000
  0.000  0.000  0.000  1.000  0.000
  0.000  0.000  0.000  0.000  1.000
   spin  2
    eigenvalues: 
  0.000  0.000  0.000  0.000  0.000
    eigenvectors:
  1.000  0.000  0.000  0.000  0.000
  0.000  1.000  0.000  0.000  0.000
  0.000  0.000  1.000  0.000  0.000
  0.000  0.000  0.000  1.000  0.000
  0.000  0.000  0.000  0.000  1.000
    occupations:
  0.000  0.000  0.000  0.000  0.000
  0.000  0.000  0.000  0.000  0.000
  0.000  0.000  0.000  0.000  0.000
  0.000  0.000  0.000  0.000  0.000
  0.000  0.000  0.000  0.000  0.000
atomic mag. moment =     5.000000
atom    4   Tr[ns(na)] (up, down, total) =   5.00000  0.00000  5.00000
   spin  1
    eigenvalues: 
  1.000  1.000  1.000  1.000  1.000
    eigenvectors:
  1.000  0.000  0.000  0.000  0.000
  0.000  1.000  0.000  0.000  0.000
  0.000  0.000  1.000  0.000  0.000
  0.000  0.000  0.000  1.000  0.000
  0.000  0.000  0.000  0.000  1.000
    occupations:
  1.000  0.000  0.000  0.000  0.000
  0.000  1.000  0.000  0.000  0.000
  0.000  0.000  1.000  0.000  0.000
  0.000  0.000  0.000  1.000  0.000
  0.000  0.000  0.000  0.000  1.000
   spin  2
    eigenvalues: 
  0.000  0.000  0.000  0.000  0.000
    eigenvectors:
  1.000  0.000  0.000  0.000  0.000
  0.000  1.000  0.000  0.000  0.000
  0.000  0.000  1.000  0.000  0.000
  0.000  0.000  0.000  1.000  0.000
  0.000  0.000  0.000  0.000  1.000
    occupations:
  0.000  0.000  0.000  0.000  0.000
  0.000  0.000  0.000  0.000  0.000
  0.000  0.000  0.000  0.000  0.000
  0.000  0.000  0.000  0.000  0.000
  0.000  0.000  0.000  0.000  0.000
atomic mag. moment =     5.000000
atom    5   Tr[ns(na)] (up, down, total) =   5.00000  0.00000  5.00000
   spin  1
    eigenvalues: 
  1.000  1.000  1.000  1.000  1.000
    eigenvectors:
  1.000  0.000  0.000  0.000  0.000
  0.000  1.000  0.000  0.000  0.000
  0.000  0.000  1.000  0.000  0.000
  0.000  0.000  0.000  1.000  0.000
  0.000  0.000  0.000  0.000  1.000
    occupations:
  1.000  0.000  0.000  0.000  0.000
  0.000  1.000  0.000  0.000  0.000
  0.000  0.000  1.000  0.000  0.000
  0.000  0.000  0.000  1.000  0.000
  0.000  0.000  0.000  0.000  1.000
   spin  2
    eigenvalues: 
  0.000  0.000  0.000  0.000  0.000
    eigenvectors:
  1.000  0.000  0.000  0.000  0.000
  0.000  1.000  0.000  0.000  0.000
  0.000  0.000  1.000  0.000  0.000
  0.000  0.000  0.000  1.000  0.000
  0.000  0.000  0.000  0.000  1.000
    occupations:
  0.000  0.000  0.000  0.000  0.000
  0.000  0.000  0.000  0.000  0.000
  0.000  0.000  0.000  0.000  0.000
  0.000  0.000  0.000  0.000  0.000
  0.000  0.000  0.000  0.000  0.000
atomic mag. moment =     5.000000
atom    6   Tr[ns(na)] (up, down, total) =   5.00000  0.00000  5.00000
   spin  1
    eigenvalues: 
  1.000  1.000  1.000  1.000  1.000
    eigenvectors:
  1.000  0.000  0.000  0.000  0.000
  0.000  1.000  0.000  0.000  0.000
  0.000  0.000  1.000  0.000  0.000
  0.000  0.000  0.000  1.000  0.000
  0.000  0.000  0.000  0.000  1.000
    occupations:
  1.000  0.000  0.000  0.000  0.000
  0.000  1.000  0.000  0.000  0.000
  0.000  0.000  1.000  0.000  0.000
  0.000  0.000  0.000  1.000  0.000
  0.000  0.000  0.000  0.000  1.000
   spin  2
    eigenvalues: 
  0.000  0.000  0.000  0.000  0.000
    eigenvectors:
  1.000  0.000  0.000  0.000  0.000
  0.000  1.000  0.000  0.000  0.000
  0.000  0.000  1.000  0.000  0.000
  0.000  0.000  0.000  1.000  0.000
  0.000  0.000  0.000  0.000  1.000
    occupations:
  0.000  0.000  0.000  0.000  0.000
  0.000  0.000  0.000  0.000  0.000
  0.000  0.000  0.000  0.000  0.000
  0.000  0.000  0.000  0.000  0.000
  0.000  0.000  0.000  0.000  0.000
atomic mag. moment =     5.000000
atom    7   Tr[ns(na)] (up, down, total) =   5.00000  0.00000  5.00000
   spin  1
    eigenvalues: 
  1.000  1.000  1.000  1.000  1.000
    eigenvectors:
  1.000  0.000  0.000  0.000  0.000
  0.000  1.000  0.000  0.000  0.000
  0.000  0.000  1.000  0.000  0.000
  0.000  0.000  0.000  1.000  0.000
  0.000  0.000  0.000  0.000  1.000
    occupations:
  1.000  0.000  0.000  0.000  0.000
  0.000  1.000  0.000  0.000  0.000
  0.000  0.000  1.000  0.000  0.000
  0.000  0.000  0.000  1.000  0.000
  0.000  0.000  0.000  0.000  1.000
   spin  2
    eigenvalues: 
  0.000  0.000  0.000  0.000  0.000
    eigenvectors:
  1.000  0.000  0.000  0.000  0.000
  0.000  1.000  0.000  0.000  0.000
  0.000  0.000  1.000  0.000  0.000
  0.000  0.000  0.000  1.000  0.000
  0.000  0.000  0.000  0.000  1.000
    occupations:
  0.000  0.000  0.000  0.000  0.000
  0.000  0.000  0.000  0.000  0.000
  0.000  0.000  0.000  0.000  0.000
  0.000  0.000  0.000  0.000  0.000
  0.000  0.000  0.000  0.000  0.000
atomic mag. moment =     5.000000
atom    8   Tr[ns(na)] (up, down, total) =   5.00000  0.00000  5.00000
   spin  1
    eigenvalues: 
  1.000  1.000  1.000  1.000  1.000
    eigenvectors:
  1.000  0.000  0.000  0.000  0.000
  0.000  1.000  0.000  0.000  0.000
  0.000  0.000  1.000  0.000  0.000
  0.000  0.000  0.000  1.000  0.000
  0.000  0.000  0.000  0.000  1.000
    occupations:
  1.000  0.000  0.000  0.000  0.000
  0.000  1.000  0.000  0.000  0.000
  0.000  0.000  1.000  0.000  0.000
  0.000  0.000  0.000  1.000  0.000
  0.000  0.000  0.000  0.000  1.000
   spin  2
    eigenvalues: 
  0.000  0.000  0.000  0.000  0.000
    eigenvectors:
  1.000  0.000  0.000  0.000  0.000
  0.000  1.000  0.000  0.000  0.000
  0.000  0.000  1.000  0.000  0.000
  0.000  0.000  0.000  1.000  0.000
  0.000  0.000  0.000  0.000  1.000
    occupations:
  0.000  0.000  0.000  0.000  0.000
  0.000  0.000  0.000  0.000  0.000
  0.000  0.000  0.000  0.000  0.000
  0.000  0.000  0.000  0.000  0.000
  0.000  0.000  0.000  0.000  0.000
atomic mag. moment =     5.000000
N of occupied +U levels =   40.000000
 --- exit write_ns ---
 Atomic wfc used for LDA+U Projector are NOT orthogonalized
     Starting wfcs are  224 randomized atomic wfcs
     Checking if some PAW data can be deallocated... 

     total cpu time spent up to now is       22.1 secs

     Self-consistent Calculation

     iteration #  1     ecut=    45.00 Ry     beta= 0.10
     Davidson diagonalization with overlap
     ethr =  1.00E-02,  avg # of iterations =  3.7
 --- enter write_ns ---
 LDA+U parameters:
U(  1) =   3.1200   J(  1) =   0.7000   B(  1) =   0.0803
atom    1   Tr[ns(na)] (up, down, total) =   5.01498  0.27142  5.28640
   spin  1
    eigenvalues: 
  1.003  1.003  1.003  1.003  1.004
    eigenvectors:
  0.000  0.000  0.000  1.000  0.000
  0.002  0.500  0.498  0.000  0.000
  0.002  0.500  0.498  0.000  0.000
  0.000  0.000  0.000  0.000  1.000
  0.996  0.000  0.004  0.000  0.000
    occupations:
  1.003 -0.000 -0.000 -0.000  0.000
 -0.000  1.003  0.000  0.000  0.000
 -0.000  0.000  1.003 -0.000  0.000
 -0.000  0.000 -0.000  1.004 -0.000
  0.000  0.000  0.000 -0.000  1.003
   spin  2
    eigenvalues: 
  0.039  0.049  0.054  0.055  0.074
    eigenvectors:
  0.000  0.990  0.000  0.009  0.000
  0.000  0.005  0.500  0.495  0.000
  0.000  0.005  0.500  0.495  0.000
  1.000  0.000  0.000  0.000  0.000
  0.000  0.000  0.000  0.000  1.000
    occupations:
  0.049  0.000  0.000 -0.000 -0.000
  0.000  0.055  0.000 -0.000  0.000
  0.000  0.000  0.055  0.000  0.000
 -0.000 -0.000  0.000  0.039 -0.000
 -0.000  0.000  0.000 -0.000  0.074
atomic mag. moment =     4.743563
atom    2   Tr[ns(na)] (up, down, total) =   5.01508  0.27160  5.28668
   spin  1
    eigenvalues: 
  1.003  1.003  1.003  1.003  1.004
    eigenvectors:
  0.000  0.000  0.006  0.994  0.000
  0.000  0.500  0.497  0.003  0.000
  0.000  0.500  0.497  0.003  0.000
  0.000  0.000  0.000  0.000  1.000
  1.000  0.000  0.000  0.000  0.000
    occupations:
  1.003 -0.000 -0.000 -0.000  0.000
 -0.000  1.003  0.000 -0.000 -0.000
 -0.000  0.000  1.003  0.000 -0.000
 -0.000 -0.000  0.000  1.004 -0.000
  0.000 -0.000 -0.000 -0.000  1.003
   spin  2
    eigenvalues: 
  0.039  0.049  0.055  0.055  0.074
    eigenvectors:
  0.000  0.992  0.000  0.008  0.000
  0.000  0.004  0.500  0.496  0.000
  0.000  0.004  0.500  0.496  0.000
  1.000  0.000  0.000  0.000  0.000
  0.000  0.000  0.000  0.001  0.999
    occupations:
  0.049  0.000  0.000 -0.000 -0.000
  0.000  0.055  0.000  0.000  0.000
  0.000  0.000  0.055 -0.000  0.000
 -0.000  0.000 -0.000  0.039 -0.000
 -0.000  0.000  0.000 -0.000  0.074
atomic mag. moment =     4.743480
atom    3   Tr[ns(na)] (up, down, total) =   5.01495  0.27111  5.28606
   spin  1
    eigenvalues: 
  1.003  1.003  1.003  1.003  1.004
    eigenvectors:
  0.000  0.000  0.000  0.999  0.000
  0.000  0.254  0.746  0.000  0.000
  0.000  0.746  0.254  0.000  0.000
  0.000  0.000  0.000  0.000  0.999
  1.000  0.000  0.000  0.000  0.000
    occupations:
  1.003 -0.000  0.000  0.000  0.000
 -0.000  1.003  0.000 -0.000 -0.000
  0.000  0.000  1.003  0.000  0.000
  0.000 -0.000  0.000  1.004  0.000
  0.000 -0.000  0.000  0.000  1.003
   spin  2
    eigenvalues: 
  0.039  0.049  0.055  0.055  0.073
    eigenvectors:
  0.000  0.991  0.000  0.009  0.000
  0.000  0.004  0.407  0.588  0.000
  0.000  0.005  0.592  0.403  0.000
  1.000  0.000  0.000  0.000  0.000
  0.000  0.000  0.000  0.001  0.999
    occupations:
  0.049  0.000  0.000  0.000  0.000
  0.000  0.055  0.000  0.000  0.000
  0.000  0.000  0.055 -0.000  0.000
  0.000  0.000 -0.000  0.039 -0.000
  0.000  0.000  0.000 -0.000  0.073
atomic mag. moment =     4.743845
atom    4   Tr[ns(na)] (up, down, total) =   5.01495  0.27111  5.28606
   spin  1
    eigenvalues: 
  1.003  1.003  1.003  1.003  1.004
    eigenvectors:
  0.000  0.000  0.000  0.999  0.000
  0.000  0.746  0.254  0.000  0.000
  0.000  0.254  0.746  0.000  0.000
  0.000  0.000  0.000  0.000  0.999
  1.000  0.000  0.000  0.000  0.000
    occupations:
  1.003  0.000 -0.000 -0.000  0.000
  0.000  1.003  0.000 -0.000  0.000
 -0.000  0.000  1.003  0.000 -0.000
 -0.000 -0.000  0.000  1.004 -0.000
  0.000  0.000 -0.000 -0.000  1.003
   spin  2
    eigenvalues: 
  0.039  0.049  0.055  0.055  0.073
    eigenvectors:
  0.000  0.991  0.000  0.009  0.000
  0.000  0.005  0.592  0.403  0.000
  0.000  0.004  0.407  0.588  0.000
  1.000  0.000  0.000  0.000  0.000
  0.000  0.000  0.000  0.001  0.999
    occupations:
  0.049  0.000  0.000 -0.000  0.000
  0.000  0.055  0.000  0.000  0.000
  0.000  0.000  0.055 -0.000  0.000
 -0.000  0.000 -0.000  0.039  0.000
  0.000  0.000  0.000  0.000  0.073
atomic mag. moment =     4.743845
atom    5   Tr[ns(na)] (up, down, total) =   5.01501  0.27180  5.28681
   spin  1
    eigenvalues: 
  1.003  1.003  1.003  1.003  1.004
    eigenvectors:
  0.000  0.000  0.000  1.000  0.000
  0.001  0.500  0.499  0.000  0.000
  0.001  0.500  0.499  0.000  0.000
  0.000  0.000  0.000  0.000  1.000
  0.999  0.000  0.001  0.000  0.000
    occupations:
  1.003  0.000  0.000 -0.000 -0.000
  0.000  1.003  0.000  0.000  0.000
  0.000  0.000  1.003 -0.000  0.000
 -0.000  0.000 -0.000  1.004 -0.000
 -0.000  0.000  0.000 -0.000  1.003
   spin  2
    eigenvalues: 
  0.039  0.049  0.055  0.055  0.074
    eigenvectors:
  0.000  0.994  0.000  0.006  0.000
  0.000  0.003  0.500  0.497  0.000
  0.000  0.003  0.500  0.497  0.000
  1.000  0.000  0.000  0.000  0.000
  0.000  0.000  0.000  0.000  1.000
    occupations:
  0.049  0.000  0.000 -0.000 -0.000
  0.000  0.055  0.000 -0.000  0.000
  0.000  0.000  0.055  0.000  0.000
 -0.000 -0.000  0.000  0.039 -0.000
 -0.000  0.000  0.000 -0.000  0.074
atomic mag. moment =     4.743211
atom    6   Tr[ns(na)] (up, down, total) =   5.01521  0.27130  5.28651
   spin  1
    eigenvalues: 
  1.003  1.003  1.003  1.003  1.004
    eigenvectors:
  0.000  0.000  0.006  0.994  0.000
  0.001  0.500  0.496  0.003  0.000
  0.001  0.500  0.496  0.003  0.000
  0.000  0.001  0.000  0.000  0.999
  0.998  0.000  0.002  0.000  0.000
    occupations:
  1.003 -0.000 -0.000 -0.000  0.000
 -0.000  1.003  0.000  0.000  0.000
 -0.000  0.000  1.003 -0.000  0.000
 -0.000  0.000 -0.000  1.004 -0.000
  0.000  0.000  0.000 -0.000  1.003
   spin  2
    eigenvalues: 
  0.039  0.049  0.055  0.055  0.074
    eigenvectors:
  0.000  0.994  0.000  0.005  0.000
  0.000  0.003  0.500  0.497  0.000
  0.000  0.003  0.500  0.497  0.000
  1.000  0.000  0.000  0.000  0.000
  0.000  0.000  0.000  0.000  1.000
    occupations:
  0.049  0.000  0.000 -0.000 -0.000
  0.000  0.055  0.000  0.000  0.000
  0.000  0.000  0.055 -0.000  0.000
 -0.000  0.000 -0.000  0.039 -0.000
 -0.000  0.000  0.000 -0.000  0.074
atomic mag. moment =     4.743914
atom    7   Tr[ns(na)] (up, down, total) =   5.01495  0.27111  5.28606
   spin  1
    eigenvalues: 
  1.003  1.003  1.003  1.003  1.004
    eigenvectors:
  0.000  0.000  0.000  0.999  0.000
  0.000  0.746  0.254  0.000  0.000
  0.000  0.254  0.746  0.000  0.000
  0.000  0.000  0.000  0.000  0.999
  1.000  0.000  0.000  0.000  0.000
    occupations:
  1.003  0.000 -0.000 -0.000  0.000
  0.000  1.003  0.000 -0.000  0.000
 -0.000  0.000  1.003  0.000 -0.000
 -0.000 -0.000  0.000  1.004 -0.000
  0.000  0.000 -0.000 -0.000  1.003
   spin  2
    eigenvalues: 
  0.039  0.049  0.055  0.055  0.073
    eigenvectors:
  0.000  0.991  0.000  0.009  0.000
  0.000  0.005  0.592  0.403  0.000
  0.000  0.004  0.407  0.588  0.000
  1.000  0.000  0.000  0.000  0.000
  0.000  0.000  0.000  0.001  0.999
    occupations:
  0.049  0.000  0.000 -0.000  0.000
  0.000  0.055  0.000  0.000  0.000
  0.000  0.000  0.055 -0.000  0.000
 -0.000  0.000 -0.000  0.039  0.000
  0.000  0.000  0.000  0.000  0.073
atomic mag. moment =     4.743845
atom    8   Tr[ns(na)] (up, down, total) =   5.01495  0.27111  5.28606
   spin  1
    eigenvalues: 
  1.003  1.003  1.003  1.003  1.004
    eigenvectors:
  0.000  0.000  0.000  0.999  0.000
  0.000  0.254  0.746  0.000  0.000
  0.000  0.746  0.254  0.000  0.000
  0.000  0.000  0.000  0.000  0.999
  1.000  0.000  0.000  0.000  0.000
    occupations:
  1.003 -0.000  0.000  0.000  0.000
 -0.000  1.003  0.000 -0.000 -0.000
  0.000  0.000  1.003  0.000  0.000
  0.000 -0.000  0.000  1.004  0.000
  0.000 -0.000  0.000  0.000  1.003
   spin  2
    eigenvalues: 
  0.039  0.049  0.055  0.055  0.073
    eigenvectors:
  0.000  0.991  0.000  0.009  0.000
  0.000  0.004  0.407  0.588  0.000
  0.000  0.005  0.592  0.403  0.000
  1.000  0.000  0.000  0.000  0.000
  0.000  0.000  0.000  0.001  0.999
    occupations:
  0.049  0.000  0.000  0.000  0.000
  0.000  0.055  0.000  0.000  0.000
  0.000  0.000  0.055 -0.000  0.000
  0.000  0.000 -0.000  0.039 -0.000
  0.000  0.000  0.000 -0.000  0.073
atomic mag. moment =     4.743845
N of occupied +U levels =   42.290630
 --- exit write_ns ---

     total cpu time spent up to now is       84.1 secs

     total energy              =  -14679.07496887 Ry
     Harris-Foulkes estimate   =  -14669.64521992 Ry
     estimated scf accuracy    <      21.24073975 Ry

     total magnetization       =    41.81 Bohr mag/cell
     absolute magnetization    =    43.54 Bohr mag/cell

     iteration #  2     ecut=    45.00 Ry     beta= 0.10
     Davidson diagonalization with overlap
     ethr =  7.18E-03,  avg # of iterations =  1.0

     total cpu time spent up to now is      119.2 secs

     total energy              =  -14692.29046146 Ry
     Harris-Foulkes estimate   =  -14679.18474292 Ry
     estimated scf accuracy    <      17.18327624 Ry

     total magnetization       =    41.22 Bohr mag/cell
     absolute magnetization    =    43.18 Bohr mag/cell

     iteration #  3     ecut=    45.00 Ry     beta= 0.10
     Davidson diagonalization with overlap
     ethr =  5.81E-03,  avg # of iterations =  1.9

     total cpu time spent up to now is      161.7 secs

     total energy              =  -14694.27894516 Ry
     Harris-Foulkes estimate   =  -14694.05286840 Ry
     estimated scf accuracy    <       4.15601427 Ry

     total magnetization       =    37.23 Bohr mag/cell
     absolute magnetization    =    38.76 Bohr mag/cell

     iteration #  4     ecut=    45.00 Ry     beta= 0.10
     Davidson diagonalization with overlap
     ethr =  1.40E-03,  avg # of iterations =  3.1

     total cpu time spent up to now is      211.1 secs

     total energy              =  -14693.39004097 Ry
     Harris-Foulkes estimate   =  -14694.33159571 Ry
     estimated scf accuracy    <       5.05278134 Ry

     total magnetization       =    36.92 Bohr mag/cell
     absolute magnetization    =    38.33 Bohr mag/cell

     iteration #  5     ecut=    45.00 Ry     beta= 0.10
     Davidson diagonalization with overlap
     ethr =  1.40E-03,  avg # of iterations =  3.2

     total cpu time spent up to now is      266.8 secs

     total energy              =  -14693.90755378 Ry
     Harris-Foulkes estimate   =  -14693.90625426 Ry
     estimated scf accuracy    <       0.22747679 Ry

     total magnetization       =    35.77 Bohr mag/cell
     absolute magnetization    =    37.53 Bohr mag/cell

     iteration #  6     ecut=    45.00 Ry     beta= 0.10
     Davidson diagonalization with overlap
     ethr =  7.69E-05,  avg # of iterations =  3.8

     total cpu time spent up to now is      335.7 secs

     total energy              =  -14694.00751267 Ry
     Harris-Foulkes estimate   =  -14693.97771587 Ry
     estimated scf accuracy    <       0.23597794 Ry

     total magnetization       =    34.82 Bohr mag/cell
     absolute magnetization    =    36.92 Bohr mag/cell

     iteration #  7     ecut=    45.00 Ry     beta= 0.10
     Davidson diagonalization with overlap
     ethr =  7.69E-05,  avg # of iterations =  2.0

     total cpu time spent up to now is      377.9 secs

     total energy              =  -14693.91236014 Ry
     Harris-Foulkes estimate   =  -14694.03103211 Ry
     estimated scf accuracy    <       0.74709753 Ry

     total magnetization       =    34.67 Bohr mag/cell
     absolute magnetization    =    36.77 Bohr mag/cell

     iteration #  8     ecut=    45.00 Ry     beta= 0.10
     Davidson diagonalization with overlap
     ethr =  7.69E-05,  avg # of iterations =  2.9

     total cpu time spent up to now is      433.5 secs

     total energy              =  -14693.97697555 Ry
     Harris-Foulkes estimate   =  -14693.97717359 Ry
     estimated scf accuracy    <       0.03863916 Ry

     total magnetization       =    34.55 Bohr mag/cell
     absolute magnetization    =    36.85 Bohr mag/cell

     iteration #  9     ecut=    45.00 Ry     beta= 0.10
     Davidson diagonalization with overlap
     ethr =  1.31E-05,  avg # of iterations =  2.5

     total cpu time spent up to now is      478.1 secs

     total energy              =  -14693.98017033 Ry
     Harris-Foulkes estimate   =  -14693.97780212 Ry
     estimated scf accuracy    <       0.02305881 Ry

     total magnetization       =    34.52 Bohr mag/cell
     absolute magnetization    =    36.85 Bohr mag/cell

     iteration # 10     ecut=    45.00 Ry     beta= 0.10
     Davidson diagonalization with overlap
     ethr =  7.79E-06,  avg # of iterations =  3.0

     total cpu time spent up to now is      532.7 secs

     total energy              =  -14693.98500305 Ry
     Harris-Foulkes estimate   =  -14693.98425679 Ry
     estimated scf accuracy    <       0.00310843 Ry

     total magnetization       =    34.36 Bohr mag/cell
     absolute magnetization    =    36.78 Bohr mag/cell

     iteration # 11     ecut=    45.00 Ry     beta= 0.10
     Davidson diagonalization with overlap
     ethr =  1.05E-06,  avg # of iterations =  2.9

     total cpu time spent up to now is      579.7 secs

     total energy              =  -14693.98677771 Ry
     Harris-Foulkes estimate   =  -14693.98523025 Ry
     estimated scf accuracy    <       0.00139573 Ry

     total magnetization       =    34.27 Bohr mag/cell
     absolute magnetization    =    36.74 Bohr mag/cell

     iteration # 12     ecut=    45.00 Ry     beta= 0.10
     Davidson diagonalization with overlap
     ethr =  4.72E-07,  avg # of iterations =  2.5

     total cpu time spent up to now is      632.7 secs

     total energy              =  -14693.98662006 Ry
     Harris-Foulkes estimate   =  -14693.98721209 Ry
     estimated scf accuracy    <       0.00154791 Ry

     total magnetization       =    34.15 Bohr mag/cell
     absolute magnetization    =    36.70 Bohr mag/cell

     iteration # 13     ecut=    45.00 Ry     beta= 0.10
     Davidson diagonalization with overlap
     ethr =  4.72E-07,  avg # of iterations =  2.0

     total cpu time spent up to now is      675.1 secs

     total energy              =  -14693.98719244 Ry
     Harris-Foulkes estimate   =  -14693.98680017 Ry
     estimated scf accuracy    <       0.00082666 Ry

     total magnetization       =    34.17 Bohr mag/cell
     absolute magnetization    =    36.70 Bohr mag/cell

     iteration # 14     ecut=    45.00 Ry     beta= 0.10
     Davidson diagonalization with overlap
     ethr =  2.79E-07,  avg # of iterations =  1.7

     total cpu time spent up to now is      713.9 secs

     total energy              =  -14693.98733033 Ry
     Harris-Foulkes estimate   =  -14693.98726091 Ry
     estimated scf accuracy    <       0.00049166 Ry

     total magnetization       =    34.13 Bohr mag/cell
     absolute magnetization    =    36.70 Bohr mag/cell

     iteration # 15     ecut=    45.00 Ry     beta= 0.10
     Davidson diagonalization with overlap
     ethr =  1.66E-07,  avg # of iterations =  1.6

     total cpu time spent up to now is      752.6 secs

     total energy              =  -14693.98741513 Ry
     Harris-Foulkes estimate   =  -14693.98739881 Ry
     estimated scf accuracy    <       0.00013767 Ry

     total magnetization       =    34.08 Bohr mag/cell
     absolute magnetization    =    36.68 Bohr mag/cell

     iteration # 16     ecut=    45.00 Ry     beta= 0.10
     Davidson diagonalization with overlap
     ethr =  4.65E-08,  avg # of iterations =  1.9

     total cpu time spent up to now is      792.9 secs

     total energy              =  -14693.98745420 Ry
     Harris-Foulkes estimate   =  -14693.98744407 Ry
     estimated scf accuracy    <       0.00005664 Ry

     total magnetization       =    34.06 Bohr mag/cell
     absolute magnetization    =    36.67 Bohr mag/cell

     iteration # 17     ecut=    45.00 Ry     beta= 0.10
     Davidson diagonalization with overlap
     ethr =  1.91E-08,  avg # of iterations =  1.1

     total cpu time spent up to now is      828.9 secs

     total energy              =  -14693.98746695 Ry
     Harris-Foulkes estimate   =  -14693.98745919 Ry
     estimated scf accuracy    <       0.00002434 Ry

     total magnetization       =    34.06 Bohr mag/cell
     absolute magnetization    =    36.67 Bohr mag/cell

     iteration # 18     ecut=    45.00 Ry     beta= 0.10
     Davidson diagonalization with overlap
     ethr =  8.22E-09,  avg # of iterations =  1.3

     total cpu time spent up to now is      865.7 secs

     total energy              =  -14693.98747345 Ry
     Harris-Foulkes estimate   =  -14693.98746860 Ry
     estimated scf accuracy    <       0.00002757 Ry

     total magnetization       =    34.05 Bohr mag/cell
     absolute magnetization    =    36.67 Bohr mag/cell

     iteration # 19     ecut=    45.00 Ry     beta= 0.10
     Davidson diagonalization with overlap
     ethr =  8.22E-09,  avg # of iterations =  1.1

     total cpu time spent up to now is      901.2 secs

     total energy              =  -14693.98747922 Ry
     Harris-Foulkes estimate   =  -14693.98747427 Ry
     estimated scf accuracy    <       0.00003793 Ry

     total magnetization       =    34.05 Bohr mag/cell
     absolute magnetization    =    36.68 Bohr mag/cell

     iteration # 20     ecut=    45.00 Ry     beta= 0.10
     Davidson diagonalization with overlap
     ethr =  8.22E-09,  avg # of iterations =  1.0

     total cpu time spent up to now is      936.9 secs

     total energy              =  -14693.98748493 Ry
     Harris-Foulkes estimate   =  -14693.98748085 Ry
     estimated scf accuracy    <       0.00002715 Ry

     total magnetization       =    34.05 Bohr mag/cell
     absolute magnetization    =    36.68 Bohr mag/cell

     iteration # 21     ecut=    45.00 Ry     beta= 0.10
     Davidson diagonalization with overlap
     ethr =  8.22E-09,  avg # of iterations =  1.2

     total cpu time spent up to now is      973.2 secs

     total energy              =  -14693.98749105 Ry
     Harris-Foulkes estimate   =  -14693.98748740 Ry
     estimated scf accuracy    <       0.00002629 Ry

     total magnetization       =    34.05 Bohr mag/cell
     absolute magnetization    =    36.68 Bohr mag/cell

     iteration # 22     ecut=    45.00 Ry     beta= 0.10
     Davidson diagonalization with overlap
     ethr =  8.22E-09,  avg # of iterations =  1.0

     total cpu time spent up to now is     1008.8 secs

     total energy              =  -14693.98749260 Ry
     Harris-Foulkes estimate   =  -14693.98749082 Ry
     estimated scf accuracy    <       0.00002230 Ry

     total magnetization       =    34.05 Bohr mag/cell
     absolute magnetization    =    36.68 Bohr mag/cell

     iteration # 23     ecut=    45.00 Ry     beta= 0.10
     Davidson diagonalization with overlap
     ethr =  7.53E-09,  avg # of iterations =  1.0

     total cpu time spent up to now is     1044.3 secs

     total energy              =  -14693.98749540 Ry
     Harris-Foulkes estimate   =  -14693.98749357 Ry
     estimated scf accuracy    <       0.00000969 Ry

     total magnetization       =    34.05 Bohr mag/cell
     absolute magnetization    =    36.68 Bohr mag/cell

     iteration # 24     ecut=    45.00 Ry     beta= 0.10
     Davidson diagonalization with overlap
     ethr =  3.27E-09,  avg # of iterations =  1.1

     total cpu time spent up to now is     1080.0 secs

     total energy              =  -14693.98749605 Ry
     Harris-Foulkes estimate   =  -14693.98749461 Ry
     estimated scf accuracy    <       0.00000759 Ry

     total magnetization       =    34.05 Bohr mag/cell
     absolute magnetization    =    36.68 Bohr mag/cell

     iteration # 25     ecut=    45.00 Ry     beta= 0.10
     Davidson diagonalization with overlap
     ethr =  2.56E-09,  avg # of iterations =  1.1

     total cpu time spent up to now is     1115.7 secs

     total energy              =  -14693.98749745 Ry
     Harris-Foulkes estimate   =  -14693.98749625 Ry
     estimated scf accuracy    <       0.00001471 Ry

     total magnetization       =    34.05 Bohr mag/cell
     absolute magnetization    =    36.68 Bohr mag/cell

     iteration # 26     ecut=    45.00 Ry     beta= 0.10
     Davidson diagonalization with overlap
     ethr =  2.56E-09,  avg # of iterations =  1.0

     total cpu time spent up to now is     1151.2 secs

     total energy              =  -14693.98749802 Ry
     Harris-Foulkes estimate   =  -14693.98749723 Ry
     estimated scf accuracy    <       0.00000941 Ry

     total magnetization       =    34.05 Bohr mag/cell
     absolute magnetization    =    36.68 Bohr mag/cell

     iteration # 27     ecut=    45.00 Ry     beta= 0.10
     Davidson diagonalization with overlap
     ethr =  2.56E-09,  avg # of iterations =  1.0

     total cpu time spent up to now is     1186.6 secs

     total energy              =  -14693.98749895 Ry
     Harris-Foulkes estimate   =  -14693.98749818 Ry
     estimated scf accuracy    <       0.00000517 Ry

     total magnetization       =    34.05 Bohr mag/cell
     absolute magnetization    =    36.68 Bohr mag/cell

     iteration # 28     ecut=    45.00 Ry     beta= 0.10
     Davidson diagonalization with overlap
     ethr =  1.75E-09,  avg # of iterations =  1.0

     total cpu time spent up to now is     1222.0 secs

     total energy              =  -14693.98749989 Ry
     Harris-Foulkes estimate   =  -14693.98749904 Ry
     estimated scf accuracy    <       0.00000543 Ry

     total magnetization       =    34.05 Bohr mag/cell
     absolute magnetization    =    36.68 Bohr mag/cell

     iteration # 29     ecut=    45.00 Ry     beta= 0.10
     Davidson diagonalization with overlap
     ethr =  1.75E-09,  avg # of iterations =  1.0

     total cpu time spent up to now is     1257.5 secs

     total energy              =  -14693.98750046 Ry
     Harris-Foulkes estimate   =  -14693.98749961 Ry
     estimated scf accuracy    <       0.00000475 Ry

     total magnetization       =    34.05 Bohr mag/cell
     absolute magnetization    =    36.68 Bohr mag/cell

     iteration # 30     ecut=    45.00 Ry     beta= 0.10
     Davidson diagonalization with overlap
     ethr =  1.60E-09,  avg # of iterations =  1.0

     total cpu time spent up to now is     1293.0 secs

     total energy              =  -14693.98749986 Ry
     Harris-Foulkes estimate   =  -14693.98749973 Ry
     estimated scf accuracy    <       0.00000484 Ry

     total magnetization       =    34.05 Bohr mag/cell
     absolute magnetization    =    36.68 Bohr mag/cell

     iteration # 31     ecut=    45.00 Ry     beta= 0.10
     Davidson diagonalization with overlap
     ethr =  1.60E-09,  avg # of iterations =  1.0

     total cpu time spent up to now is     1328.5 secs

     total energy              =  -14693.98750091 Ry
     Harris-Foulkes estimate   =  -14693.98750045 Ry
     estimated scf accuracy    <       0.00000272 Ry

     total magnetization       =    34.05 Bohr mag/cell
     absolute magnetization    =    36.68 Bohr mag/cell

     iteration # 32     ecut=    45.00 Ry     beta= 0.10
     Davidson diagonalization with overlap
     ethr =  9.19E-10,  avg # of iterations =  1.0

     total cpu time spent up to now is     1364.2 secs

     total energy              =  -14693.98750106 Ry
     Harris-Foulkes estimate   =  -14693.98750085 Ry
     estimated scf accuracy    <       0.00000374 Ry

     total magnetization       =    34.05 Bohr mag/cell
     absolute magnetization    =    36.68 Bohr mag/cell

     iteration # 33     ecut=    45.00 Ry     beta= 0.10
     Davidson diagonalization with overlap
     ethr =  9.19E-10,  avg # of iterations =  1.0

     total cpu time spent up to now is     1399.7 secs

     total energy              =  -14693.98750150 Ry
     Harris-Foulkes estimate   =  -14693.98750116 Ry
     estimated scf accuracy    <       0.00000266 Ry

     total magnetization       =    34.05 Bohr mag/cell
     absolute magnetization    =    36.68 Bohr mag/cell

     iteration # 34     ecut=    45.00 Ry     beta= 0.10
     Davidson diagonalization with overlap
     ethr =  8.97E-10,  avg # of iterations =  1.0

     total cpu time spent up to now is     1435.2 secs

     total energy              =  -14693.98750182 Ry
     Harris-Foulkes estimate   =  -14693.98750148 Ry
     estimated scf accuracy    <       0.00000303 Ry

     total magnetization       =    34.05 Bohr mag/cell
     absolute magnetization    =    36.68 Bohr mag/cell

     iteration # 35     ecut=    45.00 Ry     beta= 0.10
     Davidson diagonalization with overlap
     ethr =  8.97E-10,  avg # of iterations =  1.0

     total cpu time spent up to now is     1470.7 secs

     total energy              =  -14693.98750210 Ry
     Harris-Foulkes estimate   =  -14693.98750190 Ry
     estimated scf accuracy    <       0.00000497 Ry

     total magnetization       =    34.05 Bohr mag/cell
     absolute magnetization    =    36.68 Bohr mag/cell

     iteration # 36     ecut=    45.00 Ry     beta= 0.10
     Davidson diagonalization with overlap
     ethr =  8.97E-10,  avg # of iterations =  1.0

     total cpu time spent up to now is     1506.1 secs

     total energy              =  -14693.98750229 Ry
     Harris-Foulkes estimate   =  -14693.98750179 Ry
     estimated scf accuracy    <       0.00000203 Ry

     total magnetization       =    34.05 Bohr mag/cell
     absolute magnetization    =    36.68 Bohr mag/cell

     iteration # 37     ecut=    45.00 Ry     beta= 0.10
     Davidson diagonalization with overlap
     ethr =  6.87E-10,  avg # of iterations =  1.0

     total cpu time spent up to now is     1541.3 secs

     total energy              =  -14693.98750202 Ry
     Harris-Foulkes estimate   =  -14693.98750160 Ry
     estimated scf accuracy    <       0.00000208 Ry

     total magnetization       =    34.05 Bohr mag/cell
     absolute magnetization    =    36.68 Bohr mag/cell

     iteration # 38     ecut=    45.00 Ry     beta= 0.10
     Davidson diagonalization with overlap
     ethr =  6.87E-10,  avg # of iterations =  1.3
 
     Magnetic moment per site:
     atom:    1    charge:   13.5489    magn:    4.1644    constr:    0.0000
     atom:    2    charge:   13.5493    magn:    4.1622    constr:    0.0000
     atom:    3    charge:   13.5491    magn:    4.1616    constr:    0.0000
     atom:    4    charge:   13.5491    magn:    4.1616    constr:    0.0000
     atom:    5    charge:   13.5488    magn:    4.1629    constr:    0.0000
     atom:    6    charge:   13.5485    magn:    4.1642    constr:    0.0000
     atom:    7    charge:   13.5491    magn:    4.1616    constr:    0.0000
     atom:    8    charge:   13.5491    magn:    4.1616    constr:    0.0000
     atom:    9    charge:    9.0867    magn:    0.0272    constr:    0.0000
     atom:   10    charge:    9.0869    magn:    0.0284    constr:    0.0000
     atom:   11    charge:    9.0867    magn:    0.0272    constr:    0.0000
     atom:   12    charge:    9.0867    magn:    0.0272    constr:    0.0000
     atom:   13    charge:    9.0870    magn:    0.0274    constr:    0.0000
     atom:   14    charge:    9.0871    magn:    0.0283    constr:    0.0000
     atom:   15    charge:    9.0868    magn:    0.0275    constr:    0.0000
     atom:   16    charge:    9.0868    magn:    0.0275    constr:    0.0000
     atom:   17    charge:    9.0871    magn:    0.0283    constr:    0.0000
     atom:   18    charge:    9.0870    magn:    0.0274    constr:    0.0000
     atom:   19    charge:    9.0867    magn:    0.0272    constr:    0.0000
     atom:   20    charge:    9.0867    magn:    0.0272    constr:    0.0000
     atom:   21    charge:    9.0867    magn:    0.0272    constr:    0.0000
     atom:   22    charge:    9.0869    magn:    0.0284    constr:    0.0000
     atom:   23    charge:    9.0868    magn:    0.0275    constr:    0.0000
     atom:   24    charge:    9.0868    magn:    0.0275    constr:    0.0000

     total cpu time spent up to now is     1578.6 secs

     End of self-consistent calculation
 --- enter write_ns ---
 LDA+U parameters:
U(  1) =   3.1200   J(  1) =   0.7000   B(  1) =   0.0803
atom    1   Tr[ns(na)] (up, down, total) =   4.96475  0.79462  5.75938
   spin  1
    eigenvalues: 
  0.983  0.992  0.992  0.996  1.002
    eigenvectors:
  0.000  0.000  0.003  0.997  0.000
  0.001  0.500  0.498  0.001  0.000
  0.001  0.500  0.498  0.001  0.000
  0.000  0.000  0.000  0.000  1.000
  0.998  0.000  0.002  0.000  0.000
    occupations:
  0.996 -0.000 -0.000 -0.000 -0.000
 -0.000  0.992  0.000  0.000 -0.000
 -0.000  0.000  0.992 -0.000 -0.000
 -0.000  0.000 -0.000  1.002 -0.000
 -0.000 -0.000 -0.000 -0.000  0.983
   spin  2
    eigenvalues: 
  0.066  0.148  0.151  0.155  0.274
    eigenvectors:
  0.000  0.917  0.083  0.000  0.000
  0.000  0.041  0.459  0.500  0.000
  0.000  0.041  0.459  0.500  0.000
  1.000  0.000  0.000  0.000  0.000
  0.000  0.000  0.000  0.000  1.000
    occupations:
  0.149  0.000  0.000 -0.000 -0.001
  0.000  0.153 -0.002 -0.000  0.001
  0.000 -0.002  0.153  0.000  0.001
 -0.000 -0.000  0.000  0.066 -0.000
 -0.001  0.001  0.001 -0.000  0.274
atomic mag. moment =     4.170131
atom    2   Tr[ns(na)] (up, down, total) =   4.96456  0.79539  5.75996
   spin  1
    eigenvalues: 
  0.982  0.992  0.992  0.996  1.002
    eigenvectors:
  0.000  0.000  0.004  0.996  0.000
  0.001  0.500  0.498  0.002  0.000
  0.001  0.500  0.498  0.002  0.000
  0.000  0.000  0.000  0.000  1.000
  0.999  0.000  0.001  0.000  0.000
    occupations:
  0.996 -0.000 -0.000 -0.000 -0.000
 -0.000  0.992  0.000  0.000 -0.000
 -0.000  0.000  0.992 -0.000 -0.000
 -0.000  0.000 -0.000  1.002 -0.000
 -0.000 -0.000 -0.000 -0.000  0.982
   spin  2
    eigenvalues: 
  0.065  0.150  0.151  0.152  0.276
    eigenvectors:
  0.000  0.324  0.676  0.000  0.000
  0.000  0.338  0.162  0.500  0.000
  0.000  0.338  0.162  0.500  0.000
  1.000  0.000  0.000  0.000  0.000
  0.000  0.000  0.000  0.000  1.000
    occupations:
  0.151  0.000  0.000 -0.000  0.001
  0.000  0.151 -0.001 -0.000  0.000
  0.000 -0.001  0.151  0.000  0.000
 -0.000 -0.000  0.000  0.065 -0.000
  0.001  0.000  0.000 -0.000  0.276
atomic mag. moment =     4.169169
atom    3   Tr[ns(na)] (up, down, total) =   4.96450  0.79623  5.76073
   spin  1
    eigenvalues: 
  0.983  0.992  0.992  0.996  1.002
    eigenvectors:
  0.000  0.000  0.002  0.998  0.000
  0.001  0.494  0.505  0.001  0.000
  0.001  0.506  0.492  0.001  0.000
  0.000  0.000  0.000  0.000  1.000
  0.998  0.000  0.002  0.000  0.000
    occupations:
  0.996 -0.000 -0.000 -0.000 -0.000
 -0.000  0.992  0.000  0.000 -0.000
 -0.000  0.000  0.992 -0.000 -0.000
 -0.000  0.000 -0.000  1.002 -0.000
 -0.000 -0.000 -0.000 -0.000  0.983
   spin  2
    eigenvalues: 
  0.065  0.150  0.151  0.154  0.276
    eigenvectors:
  0.000  0.319  0.681  0.000  0.000
  0.000  0.335  0.159  0.506  0.000
  0.000  0.346  0.160  0.494  0.000
  1.000  0.000  0.000  0.000  0.000
  0.000  0.000  0.000  0.000  1.000
    occupations:
  0.151  0.000  0.000  0.000 -0.001
  0.000  0.152 -0.002 -0.000  0.000
  0.000 -0.002  0.152  0.000  0.000
  0.000 -0.000  0.000  0.065  0.000
 -0.001  0.000  0.000  0.000  0.276
atomic mag. moment =     4.168270
atom    4   Tr[ns(na)] (up, down, total) =   4.96450  0.79623  5.76073
   spin  1
    eigenvalues: 
  0.983  0.992  0.992  0.996  1.002
    eigenvectors:
  0.000  0.000  0.002  0.998  0.000
  0.001  0.506  0.492  0.001  0.000
  0.001  0.494  0.505  0.001  0.000
  0.000  0.000  0.000  0.000  1.000
  0.998  0.000  0.002  0.000  0.000
    occupations:
  0.996 -0.000 -0.000  0.000 -0.000
 -0.000  0.992  0.000  0.000 -0.000
 -0.000  0.000  0.992 -0.000 -0.000
  0.000  0.000 -0.000  1.002  0.000
 -0.000 -0.000 -0.000  0.000  0.983
   spin  2
    eigenvalues: 
  0.065  0.150  0.151  0.154  0.276
    eigenvectors:
  0.000  0.319  0.681  0.000  0.000
  0.000  0.346  0.160  0.494  0.000
  0.000  0.335  0.159  0.506  0.000
  1.000  0.000  0.000  0.000  0.000
  0.000  0.000  0.000  0.000  1.000
    occupations:
  0.151  0.000  0.000 -0.000 -0.001
  0.000  0.152 -0.002 -0.000  0.000
  0.000 -0.002  0.152  0.000  0.000
 -0.000 -0.000  0.000  0.065 -0.000
 -0.001  0.000  0.000 -0.000  0.276
atomic mag. moment =     4.168270
atom    5   Tr[ns(na)] (up, down, total) =   4.96477  0.79450  5.75926
   spin  1
    eigenvalues: 
  0.983  0.992  0.992  0.996  1.002
    eigenvectors:
  0.000  0.000  0.002  0.997  0.000
  0.001  0.500  0.498  0.001  0.000
  0.001  0.500  0.498  0.001  0.000
  0.000  0.000  0.000  0.000  1.000
  0.998  0.000  0.001  0.000  0.000
    occupations:
  0.996 -0.000 -0.000 -0.000 -0.000
 -0.000  0.992  0.000  0.000 -0.000
 -0.000  0.000  0.992 -0.000 -0.000
 -0.000  0.000 -0.000  1.002 -0.000
 -0.000 -0.000 -0.000 -0.000  0.983
   spin  2
    eigenvalues: 
  0.065  0.150  0.151  0.153  0.275
    eigenvectors:
  0.000  0.271  0.729  0.000  0.000
  0.000  0.365  0.135  0.500  0.000
  0.000  0.365  0.135  0.500  0.000
  1.000  0.000  0.000  0.000  0.000
  0.000  0.000  0.000  0.000  1.000
    occupations:
  0.151  0.000  0.000 -0.000  0.001
  0.000  0.152 -0.001  0.000  0.000
  0.000 -0.001  0.152 -0.000  0.000
 -0.000  0.000 -0.000  0.065 -0.000
  0.001  0.000  0.000 -0.000  0.275
atomic mag. moment =     4.170269
atom    6   Tr[ns(na)] (up, down, total) =   4.96479  0.79451  5.75930
   spin  1
    eigenvalues: 
  0.983  0.992  0.992  0.996  1.002
    eigenvectors:
  0.000  0.000  0.001  0.998  0.000
  0.001  0.500  0.498  0.001  0.000
  0.001  0.500  0.498  0.001  0.000
  0.000  0.000  0.000  0.000  1.000
  0.998  0.000  0.002  0.000  0.000
    occupations:
  0.996 -0.000 -0.000 -0.000 -0.000
 -0.000  0.992  0.000  0.000 -0.000
 -0.000  0.000  0.992 -0.000 -0.000
 -0.000  0.000 -0.000  1.002 -0.000
 -0.000 -0.000 -0.000 -0.000  0.983
   spin  2
    eigenvalues: 
  0.066  0.148  0.151  0.156  0.274
    eigenvectors:
  0.000  0.861  0.139  0.000  0.000
  0.000  0.069  0.431  0.500  0.000
  0.000  0.069  0.431  0.500  0.000
  1.000  0.000  0.000  0.000  0.000
  0.000  0.000  0.000  0.000  1.000
    occupations:
  0.149  0.001  0.001 -0.000 -0.001
  0.001  0.153 -0.003 -0.000  0.000
  0.001 -0.003  0.153  0.000  0.000
 -0.000 -0.000  0.000  0.066 -0.000
 -0.001  0.000  0.000 -0.000  0.274
atomic mag. moment =     4.170286
atom    7   Tr[ns(na)] (up, down, total) =   4.96450  0.79623  5.76073
   spin  1
    eigenvalues: 
  0.983  0.992  0.992  0.996  1.002
    eigenvectors:
  0.000  0.000  0.002  0.998  0.000
  0.001  0.506  0.492  0.001  0.000
  0.001  0.494  0.505  0.001  0.000
  0.000  0.000  0.000  0.000  1.000
  0.998  0.000  0.002  0.000  0.000
    occupations:
  0.996 -0.000 -0.000  0.000 -0.000
 -0.000  0.992  0.000  0.000 -0.000
 -0.000  0.000  0.992 -0.000 -0.000
  0.000  0.000 -0.000  1.002  0.000
 -0.000 -0.000 -0.000  0.000  0.983
   spin  2
    eigenvalues: 
  0.065  0.150  0.151  0.154  0.276
    eigenvectors:
  0.000  0.319  0.681  0.000  0.000
  0.000  0.346  0.160  0.494  0.000
  0.000  0.335  0.159  0.506  0.000
  1.000  0.000  0.000  0.000  0.000
  0.000  0.000  0.000  0.000  1.000
    occupations:
  0.151  0.000  0.000 -0.000 -0.001
  0.000  0.152 -0.002 -0.000  0.000
  0.000 -0.002  0.152  0.000  0.000
 -0.000 -0.000  0.000  0.065 -0.000
 -0.001  0.000  0.000 -0.000  0.276
atomic mag. moment =     4.168270
atom    8   Tr[ns(na)] (up, down, total) =   4.96450  0.79623  5.76073
   spin  1
    eigenvalues: 
  0.983  0.992  0.992  0.996  1.002
    eigenvectors:
  0.000  0.000  0.002  0.998  0.000
  0.001  0.494  0.505  0.001  0.000
  0.001  0.506  0.492  0.001  0.000
  0.000  0.000  0.000  0.000  1.000
  0.998  0.000  0.002  0.000  0.000
    occupations:
  0.996 -0.000 -0.000 -0.000 -0.000
 -0.000  0.992  0.000  0.000 -0.000
 -0.000  0.000  0.992 -0.000 -0.000
 -0.000  0.000 -0.000  1.002 -0.000
 -0.000 -0.000 -0.000 -0.000  0.983
   spin  2
    eigenvalues: 
  0.065  0.150  0.151  0.154  0.276
    eigenvectors:
  0.000  0.319  0.681  0.000  0.000
  0.000  0.335  0.159  0.506  0.000
  0.000  0.346  0.160  0.494  0.000
  1.000  0.000  0.000  0.000  0.000
  0.000  0.000  0.000  0.000  1.000
    occupations:
  0.151  0.000  0.000  0.000 -0.001
  0.000  0.152 -0.002 -0.000  0.000
  0.000 -0.002  0.152  0.000  0.000
  0.000 -0.000  0.000  0.065  0.000
 -0.001  0.000  0.000  0.000  0.276
atomic mag. moment =     4.168270
N of occupied +U levels =   46.080820
 --- exit write_ns ---

 ------ SPIN UP ------------


          k = 0.0000 0.0000 0.0000 ( 13629 PWs)   bands (ev):

   -66.3215 -66.3202 -66.3164 -66.3156 -66.3151 -66.3143 -66.3143 -66.3143
   -35.0945 -35.0929 -35.0890 -35.0885 -35.0884 -35.0883 -35.0881 -35.0876
   -35.0520 -35.0516 -35.0504 -35.0485 -35.0468 -35.0456 -35.0431 -35.0428
   -35.0427 -35.0423 -35.0408 -35.0407 -35.0381 -35.0360 -35.0355 -35.0351
     5.8827   7.4904   7.4906   8.0235   8.0236   8.1478   8.2494   8.2497
     8.6814   8.6819   8.9148   8.9148   9.2291   9.2292   9.2801   9.2802
     9.3168   9.3169   9.4302   9.4564   9.4566   9.4902   9.5017   9.5020
     9.5470   9.5635   9.6010   9.6646   9.6654   9.7132   9.7138   9.7893
     9.7897   9.8594   9.8839   9.8842   9.9296   9.9297   9.9533   9.9816
     9.9824  10.1036  10.1501  10.1923  10.2281  10.2282  10.2520  10.3788
    10.3803  10.3900  10.3912  10.4251  10.4264  10.4556  10.4561  10.4627
    10.4630  10.4742  10.4744  10.6257  10.6271  10.6297  10.6313  10.6319
    10.8398  10.8401  10.9623  10.9653  11.2439  11.2464  11.2961  11.2976
    11.3657  11.4509  11.4684  11.4749  11.5496  11.5502  11.7538  11.7549
    11.7832  11.7834  11.8085  11.8095  11.8663  11.8672  11.8816  11.9608
    11.9620  12.0140  12.0318  12.0318  12.0807  12.0812  12.2312  12.2514
    12.2523  12.2824  12.2831  12.3167  12.4731  12.4749  12.4794  12.4861
    12.5187  12.5610  12.5621  12.6162  12.6166  12.6555  12.6558  12.6729
    12.7090  12.7101  12.8368  12.8378  12.8775  12.8785  13.0605  13.0608
    13.0937  13.0948  13.2228  13.2229  13.3973  13.3976  13.4053  13.4614
    13.4623  14.0489  14.9886  14.9893  15.9034  15.9035  17.2048  17.3665
    17.7698  18.1549  18.7929  18.7931  18.8528  18.8529  18.9185  19.2109
    19.2118  19.2131

          k = 0.0000 0.0000-0.5441 ( 13704 PWs)   bands (ev):

   -66.3215 -66.3203 -66.3164 -66.3157 -66.3152 -66.3143 -66.3143 -66.3143
   -35.0945 -35.0929 -35.0891 -35.0885 -35.0885 -35.0883 -35.0881 -35.0876
   -35.0520 -35.0516 -35.0504 -35.0485 -35.0468 -35.0456 -35.0431 -35.0428
   -35.0427 -35.0423 -35.0408 -35.0407 -35.0381 -35.0360 -35.0355 -35.0350
     6.4753   7.4913   8.0230   8.0233   8.3541   8.3542   8.5419   8.5421
     8.5552   8.7291   8.7686   8.7728   8.8017   8.9085   8.9085   8.9172
     8.9173   8.9208   9.0637   9.3149   9.4555   9.4560   9.4968   9.5367
     9.5372   9.5988   9.5988   9.6045   9.6062   9.6068   9.6346   9.6641
     9.6647   9.7141   9.7375   9.7883   9.7884   9.8451   9.8857   9.9846
     9.9847  10.0427  10.0428  10.0897  10.2565  10.2750  10.2808  10.3167
    10.3200  10.3837  10.3838  10.4506  10.4515  10.4643  10.4728  10.5410
    10.5592  10.5608  10.6271  10.6351  10.8369  10.8380  10.9685  10.9747
    10.9974  10.9983  11.2471  11.5068  11.5069  11.5241  11.5256  11.5275
    11.5281  11.5364  11.5477  11.5492  11.6464  11.7233  11.7264  11.7309
    11.8051  11.8099  11.8643  11.8650  11.8713  11.8713  11.8821  11.9653
    11.9938  11.9941  12.0049  12.0051  12.0481  12.0772  12.1268  12.1271
    12.1687  12.2288  12.2467  12.2517  12.2521  12.2720  12.2827  12.3187
    12.4756  12.4760  12.4764  12.4790  12.6139  12.6144  12.7113  12.7120
    12.7122  12.7400  12.8356  12.8371  12.8372  13.0578  13.0968  13.0969
    13.2058  13.2073  13.2097  13.2681  13.2681  13.2818  13.7658  13.7704
    14.1991  14.1996  14.2469  14.2469  14.5458  15.9040  15.9046  16.2327
    16.2343  17.2026  17.5715  18.3472  18.5825  18.7910  18.7912  18.8527
    18.8527  19.2108

          k = 0.0000 0.0000 1.0883 ( 13706 PWs)   bands (ev):

   -66.3215 -66.3204 -66.3164 -66.3158 -66.3153 -66.3143 -66.3143 -66.3143
   -35.0946 -35.0930 -35.0892 -35.0886 -35.0885 -35.0883 -35.0881 -35.0876
   -35.0520 -35.0516 -35.0504 -35.0486 -35.0468 -35.0456 -35.0431 -35.0428
   -35.0427 -35.0423 -35.0408 -35.0407 -35.0380 -35.0360 -35.0354 -35.0350
     7.7722   8.0239   8.0240   8.1478   8.2493   8.2497   8.3047   8.5022
     8.5088   8.6818   8.6820   8.7292   8.7299   8.8044   8.8046   8.9130
     8.9139   9.0640   9.0642   9.2282   9.2285   9.2796   9.2801   9.4287
     9.4567   9.4568   9.5631   9.6339   9.6345   9.6650   9.6658   9.7364
     9.7366   9.7895   9.7896   9.8448   9.8452   9.9290   9.9291   9.9534
     9.9823   9.9834  10.0878  10.0892  10.1438  10.1939  10.2293  10.2297
    10.2506  10.2518  10.2535  10.3429  10.3445  10.3796  10.3809  10.3905
    10.3916  10.4241  10.4252  10.4552  10.4556  10.6385  10.8392  10.8396
    10.8542  10.8606  10.8906  10.9247  11.3679  11.4537  11.5276  11.5277
    11.5280  11.5283  11.5497  11.5502  11.6602  11.7553  11.7563  11.7848
    11.7849  11.8642  11.8652  11.8816  12.0126  12.0307  12.0308  12.0472
    12.0488  12.1673  12.1678  12.2312  12.2453  12.2475  12.2524  12.2534
    12.3167  12.4726  12.4745  12.4783  12.5589  12.5620  12.5633  12.6175
    12.6180  12.6543  12.6544  12.7082  12.7094  12.7401  12.7404  12.8774
    12.8784  13.0738  13.0942  13.0950  13.1506  13.1536  13.2221  13.2223
    13.2785  13.2789  13.3960  13.3960  13.4020  13.4370  13.4616  13.4623
    13.7665  13.7676  13.7732  13.7737  14.0477  14.9895  14.9895  15.9038
    15.9039  17.2040  17.5698  17.5700  18.1561  18.5820  18.5822  18.7924
    18.7925  18.8527

          k =-0.1768-0.1768-0.1360 ( 13673 PWs)   bands (ev):

   -66.3213 -66.3202 -66.3161 -66.3156 -66.3151 -66.3146 -66.3144 -66.3143
   -35.0945 -35.0929 -35.0889 -35.0886 -35.0884 -35.0883 -35.0880 -35.0876
   -35.0518 -35.0514 -35.0500 -35.0484 -35.0476 -35.0465 -35.0448 -35.0441
   -35.0418 -35.0403 -35.0399 -35.0395 -35.0384 -35.0365 -35.0358 -35.0354
     6.0451   7.2100   7.6334   7.6337   8.2693   8.3202   8.3204   8.5316
     8.5319   8.7080   8.9823   9.0711   9.0714   9.1180   9.1965   9.1966
     9.2008   9.3250   9.3541   9.3542   9.3938   9.3938   9.3948   9.4533
     9.4542   9.5237   9.5432   9.6089   9.7482   9.7496   9.7496   9.8301
     9.8392   9.8492   9.9440   9.9441   9.9993  10.0261  10.0261  10.0874
    10.1294  10.1529  10.1532  10.1602  10.1743  10.2586  10.3029  10.3484
    10.3604  10.3605  10.3963  10.4405  10.4409  10.4636  10.4640  10.5316
    10.5331  10.5850  10.6272  10.6404  10.6666  10.6671  10.7263  10.8460
    10.8974  10.8978  10.9121  10.9205  11.0997  11.1854  11.1877  11.2366
    11.3379  11.3429  11.4148  11.4727  11.5811  11.6363  11.6367  11.6429
    11.6778  11.7008  11.7328  11.7338  11.8293  11.8299  11.8431  11.9028
    11.9029  11.9233  11.9730  11.9798  11.9808  12.0285  12.0688  12.1148
    12.1152  12.1867  12.1869  12.2505  12.2857  12.3158  12.3240  12.3245
    12.3521  12.4849  12.5521  12.5691  12.5850  12.5861  12.7793  12.7794
    12.8559  12.8908  12.8918  12.9053  12.9057  12.9338  12.9539  12.9853
    13.0374  13.1064  13.1066  13.2108  13.2918  13.2923  13.7858  14.4870
    14.4871  14.7521  15.6737  15.6744  15.9114  16.2534  16.6345  16.7761
    17.2500  17.3256  17.8809  17.8813  18.4837  18.4840  18.5221  18.7015
    18.7026  19.5480

          k =-0.1768-0.1768-0.6802 ( 13666 PWs)   bands (ev):

   -66.3213 -66.3203 -66.3161 -66.3157 -66.3152 -66.3146 -66.3144 -66.3143
   -35.0945 -35.0929 -35.0891 -35.0886 -35.0885 -35.0883 -35.0880 -35.0876
   -35.0518 -35.0514 -35.0500 -35.0484 -35.0476 -35.0465 -35.0448 -35.0440
   -35.0417 -35.0403 -35.0399 -35.0395 -35.0384 -35.0365 -35.0358 -35.0354
     6.8937   6.9382   8.2587   8.2589   8.3057   8.3062   8.4338   8.6253
     8.6255   8.7230   8.7264   8.7642   8.7644   8.7985   8.8855   8.8857
     8.9898   9.2074   9.2112   9.2867   9.2870   9.3926   9.4075   9.4238
     9.5344   9.5349   9.5552   9.5648   9.5649   9.5796   9.6574   9.6670
     9.6672   9.7146   9.7334   9.7610   9.8398   9.8399   9.8524   9.8525
    10.1488  10.1987  10.2372  10.2591  10.2634  10.2769  10.2781  10.2783
    10.3078  10.3313  10.4225  10.4239  10.4245  10.5231  10.5514  10.7061
    10.7063  10.7183  10.7410  10.7500  10.7523  10.7529  10.8735  10.9763
    10.9771  11.0553  11.1172  11.1185  11.1186  11.1211  11.2770  11.3348
    11.3358  11.3950  11.4458  11.5999  11.6174  11.6180  11.6755  11.7236
    11.7251  11.7486  11.8188  11.8652  11.8653  11.8917  11.9199  11.9356
    11.9625  11.9633  11.9712  11.9926  11.9927  12.0613  12.0631  12.1548
    12.1786  12.1791  12.2049  12.2053  12.2352  12.2354  12.2629  12.2642
    12.3309  12.3610  12.4649  12.5744  12.5747  12.7167  12.7212  12.7523
    12.7934  12.7939  12.9397  12.9399  13.0317  13.0735  13.0736  13.1128
    13.1484  13.1492  13.2622  13.3079  13.3081  13.3201  14.0261  14.4457
    14.8602  15.1142  15.1149  15.1270  15.1277  15.2182  15.6793  15.6794
    16.6077  16.7855  16.7856  17.1055  17.7044  17.7267  18.4330  18.7602
    19.7769  20.1929

          k =-0.1768-0.1768 0.9522 ( 13713 PWs)   bands (ev):

   -66.3214 -66.3204 -66.3161 -66.3158 -66.3153 -66.3146 -66.3144 -66.3143
   -35.0946 -35.0930 -35.0891 -35.0886 -35.0885 -35.0884 -35.0880 -35.0876
   -35.0517 -35.0514 -35.0500 -35.0484 -35.0476 -35.0465 -35.0448 -35.0441
   -35.0417 -35.0403 -35.0399 -35.0395 -35.0384 -35.0365 -35.0358 -35.0354
     7.6027   7.6892   8.1821   8.2491   8.3199   8.3203   8.5402   8.5629
     8.5630   8.5925   8.5982   8.6251   8.6252   8.7224   8.7227   8.8805
     9.0005   9.0506   9.0508   9.1226   9.2498   9.2935   9.2935   9.2940
     9.3351   9.3353   9.4124   9.4755   9.5621   9.5625   9.6645   9.6648
     9.6993   9.6996   9.6997   9.7244   9.7247   9.8660   9.9303   9.9526
     9.9527  10.0194  10.0633  10.1197  10.2037  10.2479  10.2758  10.3310
    10.3452  10.4323  10.4620  10.4630  10.4743  10.5027  10.5038  10.6235
    10.6242  10.6253  10.6600  10.7546  10.7704  10.7707  10.7892  10.7897
    10.9096  11.1629  11.1742  11.2611  11.2612  11.3540  11.4388  11.4477
    11.4890  11.7038  11.7550  11.7570  11.7576  11.7886  11.7887  11.8475
    11.9028  11.9088  11.9093  11.9723  11.9943  12.0187  12.0190  12.0284
    12.0297  12.1232  12.1250  12.1892  12.1895  12.2031  12.2254  12.2271
    12.2300  12.2509  12.3012  12.3612  12.3621  12.4000  12.4201  12.5602
    12.5811  12.5813  12.7742  12.8041  12.8041  12.8215  12.8226  12.8565
    12.8571  12.9129  12.9510  12.9889  13.0273  13.0279  13.1041  13.1045
    13.1125  13.1300  13.1302  13.1497  13.2157  13.3039  13.4646  13.4647
    13.8237  13.9018  13.9023  14.0931  14.0936  14.3985  14.8528  14.8528
    16.2569  16.2571  17.5598  17.8250  18.3075  18.4164  18.5008  18.8260
    19.1584  19.3020

          k =-0.1768-0.1768 0.4081 ( 13683 PWs)   bands (ev):

   -66.3213 -66.3203 -66.3161 -66.3157 -66.3152 -66.3146 -66.3144 -66.3143
   -35.0945 -35.0929 -35.0890 -35.0887 -35.0884 -35.0884 -35.0880 -35.0876
   -35.0518 -35.0514 -35.0500 -35.0484 -35.0476 -35.0465 -35.0448 -35.0441
   -35.0418 -35.0403 -35.0399 -35.0394 -35.0384 -35.0365 -35.0358 -35.0354
     6.3405   7.8916   7.8918   7.9653   8.2080   8.3649   8.3650   8.5034
     8.5062   8.5067   8.6485   8.8715   8.8716   8.9018   8.9579   8.9739
     9.0961   9.0961   9.1176   9.1689   9.1691   9.4155   9.4157   9.4372
     9.5317   9.5644   9.5779   9.5783   9.6339   9.6340   9.6510   9.6514
     9.6634   9.7760   9.7766   9.7898   9.7898   9.8359   9.8884   9.9231
    10.0953  10.1443  10.1444  10.1523  10.1897  10.2225  10.2355  10.2532
    10.2723  10.2723  10.2983  10.3978  10.4961  10.5212  10.5447  10.5454
    10.7210  10.7243  10.7575  10.9390  11.0650  11.0779  11.0964  11.1634
    11.1642  11.1722  11.1728  11.3052  11.3057  11.3617  11.3890  11.3907
    11.4836  11.5201  11.6253  11.7137  11.7138  11.7323  11.7730  11.8903
    11.8944  11.9059  11.9065  11.9252  11.9810  11.9824  12.0193  12.0816
    12.1392  12.1397  12.1486  12.1695  12.1700  12.2076  12.2113  12.2298
    12.2304  12.2571  12.2574  12.2997  12.3005  12.3036  12.3379  12.3750
    12.4290  12.4296  12.4621  12.5131  12.5133  12.5808  12.5818  12.5831
    12.5939  12.6394  12.7203  12.7537  12.7543  12.8536  12.8850  12.8858
    12.8883  13.1116  13.1116  13.1804  13.1858  13.2656  13.3918  13.3924
    13.6121  13.6125  14.0568  14.0570  15.2132  15.8170  15.8377  16.5156
    16.5163  17.5816  17.5908  17.5909  18.5314  18.6796  18.9194  18.9469
    19.3315  19.6913

          k = 0.3536 0.3536 0.2721 ( 13708 PWs)   bands (ev):

   -66.3212 -66.3203 -66.3156 -66.3153 -66.3153 -66.3151 -66.3144 -66.3143
   -35.0945 -35.0929 -35.0889 -35.0887 -35.0884 -35.0884 -35.0879 -35.0876
   -35.0514 -35.0512 -35.0493 -35.0486 -35.0483 -35.0472 -35.0453 -35.0452
   -35.0402 -35.0400 -35.0389 -35.0386 -35.0380 -35.0375 -35.0363 -35.0360
     6.5099   6.5104   8.0073   8.0076   8.0077   8.0080   8.5813   8.5815
     8.7073   8.7076   8.7077   8.7079   9.2387   9.2388   9.2389   9.2389
     9.2661   9.2664   9.2693   9.2696   9.3937   9.3938   9.4734   9.4737
     9.5178   9.5180   9.5544   9.5544   9.5544   9.5547   9.5709   9.5710
     9.8638   9.8639  10.0330  10.0335  10.0335  10.0335  10.1517  10.1518
    10.2014  10.2023  10.2408  10.2409  10.2981  10.2981  10.2983  10.2984
    10.3839  10.3840  10.3971  10.3971  10.3972  10.3973  10.5784  10.5786
    10.6767  10.6768  10.6778  10.6779  10.7904  10.7905  10.7992  10.7997
    10.9413  10.9415  11.0094  11.0096  11.2551  11.2553  11.2565  11.2565
    11.2834  11.2835  11.3197  11.3201  11.4075  11.4076  11.4430  11.4430
    11.4431  11.4431  11.5010  11.5012  11.8294  11.8295  11.8296  11.8296
    11.8698  11.8699  11.9958  11.9962  12.0472  12.0473  12.0855  12.0857
    12.0857  12.0857  12.1848  12.1849  12.1851  12.1856  12.2968  12.2969
    12.4050  12.4050  12.4761  12.4762  12.4764  12.4764  12.7315  12.7316
    12.7792  12.7795  12.9676  12.9680  12.9685  12.9685  13.0432  13.0436
    13.1752  13.1756  13.1877  13.1879  13.1879  13.1883  15.1259  15.1261
    15.9576  15.9581  16.1174  16.1174  16.1176  16.1177  16.2421  16.2422
    16.7665  16.7666  16.9667  16.9674  16.9676  16.9678  18.4787  18.4788
    19.5637  19.5640

          k = 0.3536 0.3536-0.2721 ( 13700 PWs)   bands (ev):

   -66.3212 -66.3203 -66.3157 -66.3153 -66.3153 -66.3152 -66.3144 -66.3143
   -35.0945 -35.0930 -35.0889 -35.0887 -35.0884 -35.0884 -35.0879 -35.0876
   -35.0514 -35.0511 -35.0493 -35.0486 -35.0483 -35.0472 -35.0453 -35.0452
   -35.0402 -35.0400 -35.0389 -35.0386 -35.0380 -35.0375 -35.0363 -35.0360
     6.5102   7.5168   8.0075   8.0076   8.2525   8.4907   8.4911   8.5130
     8.5130   8.5813   8.7083   8.7085   8.7819   8.8270   8.8532   9.1523
     9.1959   9.1960   9.2376   9.2379   9.2662   9.2687   9.2986   9.3935
     9.4249   9.4252   9.4739   9.5183   9.5535   9.5539   9.5698   9.6469
     9.6470   9.7503   9.7505   9.8158   9.8656  10.0340  10.0341  10.0745
    10.0832  10.1506  10.1522  10.2017  10.2415  10.2981  10.2982  10.3701
    10.3858  10.3971  10.3973  10.4127  10.5659  10.5766  10.5955  10.6773
    10.6781  10.7182  10.7542  10.7547  10.7898  10.7991  10.9405  11.0105
    11.0275  11.0275  11.2547  11.2564  11.2658  11.2844  11.3179  11.4073
    11.4424  11.4426  11.5002  11.5433  11.5807  11.6905  11.7839  11.7850
    11.8303  11.8304  11.8697  11.9085  11.9088  11.9624  11.9838  11.9838
    11.9970  12.0420  12.0471  12.0810  12.0813  12.0865  12.0870  12.0871
    12.1140  12.1854  12.1859  12.1895  12.2251  12.2257  12.2327  12.2958
    12.2967  12.3346  12.4054  12.4745  12.4749  12.7136  12.7140  12.7318
    12.7651  12.7794  12.8896  12.8900  12.9675  12.9682  12.9957  13.0448
    13.0570  13.1752  13.1879  13.1880  13.2281  13.2281  13.5264  13.5649
    14.3249  14.3255  15.0518  15.0518  15.1255  15.9572  16.1163  16.1170
    16.2424  16.7665  16.9678  16.9679  18.0804  18.2922  18.4791  19.2889
    19.5644  19.5645

          k = 0.3536 0.3536 1.3603 ( 13692 PWs)   bands (ev):

   -66.3212 -66.3204 -66.3158 -66.3153 -66.3153 -66.3152 -66.3145 -66.3144
   -35.0946 -35.0930 -35.0890 -35.0888 -35.0884 -35.0884 -35.0879 -35.0876
   -35.0514 -35.0511 -35.0494 -35.0486 -35.0483 -35.0472 -35.0453 -35.0452
   -35.0402 -35.0400 -35.0389 -35.0386 -35.0380 -35.0375 -35.0363 -35.0360
     7.5170   7.5174   8.2525   8.2526   8.4907   8.4908   8.4912   8.4913
     8.5130   8.5132   8.5133   8.5136   8.7808   8.7809   8.8269   8.8271
     8.8529   8.8531   9.1516   9.1518   9.1955   9.1959   9.1959   9.1960
     9.2986   9.2989   9.4239   9.4242   9.4246   9.4249   9.6464   9.6464
     9.6466   9.6468   9.7502   9.7504   9.7506   9.7507   9.8167   9.8168
    10.0745  10.0749  10.0842  10.0842  10.1515  10.1516  10.3697  10.3700
    10.4127  10.4128  10.5640  10.5647  10.5949  10.5955  10.7177  10.7178
    10.7543  10.7543  10.7551  10.7551  11.0281  11.0282  11.0282  11.0284
    11.2663  11.2665  11.5413  11.5414  11.5809  11.5810  11.6902  11.6903
    11.7839  11.7843  11.7848  11.7849  11.9090  11.9092  11.9092  11.9095
    11.9622  11.9624  11.9832  11.9833  11.9833  11.9834  12.0414  12.0417
    12.0808  12.0810  12.0811  12.0811  12.0876  12.0878  12.1144  12.1146
    12.1901  12.1902  12.2257  12.2257  12.2261  12.2264  12.2323  12.2325
    12.2972  12.2972  12.3335  12.3337  12.7135  12.7135  12.7138  12.7138
    12.7654  12.7654  12.8899  12.8901  12.8903  12.8903  12.9958  12.9962
    13.0564  13.0566  13.2273  13.2273  13.2276  13.2277  13.5259  13.5259
    13.5652  13.5653  14.3246  14.3249  14.3253  14.3255  15.0516  15.0516
    15.0516  15.0518  18.0796  18.0798  18.2915  18.2917  19.2896  19.2897
    19.5884  19.5885

          k = 0.1768-0.1768 0.0000 ( 13644 PWs)   bands (ev):

   -66.3214 -66.3202 -66.3161 -66.3157 -66.3151 -66.3146 -66.3144 -66.3142
   -35.0945 -35.0929 -35.0890 -35.0885 -35.0884 -35.0883 -35.0881 -35.0876
   -35.0518 -35.0514 -35.0501 -35.0483 -35.0476 -35.0465 -35.0452 -35.0436
   -35.0417 -35.0405 -35.0397 -35.0394 -35.0385 -35.0365 -35.0358 -35.0354
     6.0074   6.9023   7.9275   8.0916   8.0918   8.1483   8.3184   8.3187
     8.5541   8.5545   8.8041   8.8042   9.1637   9.2958   9.3087   9.3087
     9.3207   9.3207   9.3840   9.4766   9.4880   9.4881   9.4973   9.5655
     9.5658   9.5876   9.5879   9.5957   9.6230   9.6384   9.6631   9.6635
     9.7321   9.8337   9.8337   9.8507   9.8738   9.9917   9.9927  10.0584
    10.0895  10.0904  10.1211  10.1538  10.1946  10.2001  10.2704  10.2762
    10.4525  10.4534  10.4875  10.4876  10.4889  10.4889  10.4914  10.5068
    10.5285  10.5597  10.5610  10.5684  10.5834  10.6004  10.7528  10.9361
    10.9925  11.0270  11.0750  11.1817  11.1819  11.2357  11.2635  11.3385
    11.3444  11.3685  11.4323  11.5093  11.5471  11.5476  11.6400  11.6445
    11.7392  11.7395  11.7850  11.7955  11.7957  11.8994  11.9158  11.9362
    11.9371  11.9578  11.9581  12.0511  12.1195  12.2241  12.2268  12.2309
    12.2314  12.2797  12.2801  12.2849  12.2854  12.2980  12.3655  12.4989
    12.5094  12.5162  12.5534  12.6921  12.6922  12.6935  12.6965  12.6970
    12.7334  12.7339  12.7904  12.7909  12.8260  12.8621  12.9407  12.9411
    13.0432  13.0985  13.0996  13.1195  13.2112  13.2122  13.2936  13.3385
    14.1801  14.1803  15.3196  15.3200  15.7842  15.7842  17.1641  17.1642
    17.5139  17.8704  17.8998  18.2070  18.6049  18.7301  18.8655  19.0938
    19.1573  19.4156

          k = 0.1768-0.1768-0.5441 ( 13695 PWs)   bands (ev):

   -66.3214 -66.3202 -66.3161 -66.3157 -66.3152 -66.3146 -66.3144 -66.3142
   -35.0945 -35.0929 -35.0891 -35.0885 -35.0885 -35.0883 -35.0881 -35.0876
   -35.0518 -35.0514 -35.0501 -35.0483 -35.0475 -35.0465 -35.0452 -35.0437
   -35.0417 -35.0405 -35.0397 -35.0394 -35.0385 -35.0365 -35.0358 -35.0354
     6.5889   7.4307   7.6000   8.2423   8.3828   8.4742   8.4860   8.5859
     8.6699   8.7123   8.7208   8.7635   8.8246   8.8343   8.9713   8.9820
     8.9956   9.0235   9.0577   9.1502   9.3052   9.3110   9.3162   9.3186
     9.4651   9.4683   9.4830   9.5560   9.5638   9.6067   9.6439   9.6511
     9.6622   9.6917   9.6994   9.7880   9.8068   9.8491   9.8992  10.0024
    10.1884  10.2076  10.2299  10.2386  10.2656  10.2755  10.2801  10.3104
    10.3628  10.4837  10.5369  10.5493  10.5679  10.6066  10.6359  10.6587
    10.6670  10.7263  10.7405  10.7700  10.8191  10.8526  10.8903  11.0539
    11.0600  11.1593  11.2110  11.2536  11.2656  11.3535  11.4112  11.4854
    11.5142  11.5411  11.5591  11.5608  11.5760  11.5929  11.6274  11.6738
    11.6974  11.7831  11.8134  11.9053  11.9527  11.9538  11.9569  11.9739
    11.9974  12.0011  12.0321  12.0449  12.0599  12.0608  12.0668  12.0875
    12.1591  12.1792  12.1994  12.2299  12.2394  12.2746  12.2766  12.2889
    12.3170  12.3990  12.4029  12.4895  12.5544  12.5744  12.6063  12.6200
    12.7150  12.7478  12.8728  12.9096  12.9201  12.9861  13.0002  13.1030
    13.1625  13.2041  13.2719  13.2832  13.3795  13.4658  13.7234  13.7384
    13.7492  13.8461  14.5701  15.1121  15.3657  15.4055  15.4587  16.1800
    16.4426  16.8933  17.6536  17.8389  18.3013  18.4467  18.6281  18.9390
    19.3654  19.7012

          k = 0.1768-0.1768 1.0883 ( 13696 PWs)   bands (ev):

   -66.3214 -66.3203 -66.3161 -66.3158 -66.3153 -66.3146 -66.3145 -66.3142
   -35.0946 -35.0930 -35.0892 -35.0885 -35.0885 -35.0883 -35.0881 -35.0876
   -35.0518 -35.0513 -35.0501 -35.0483 -35.0475 -35.0464 -35.0452 -35.0437
   -35.0417 -35.0405 -35.0397 -35.0394 -35.0384 -35.0365 -35.0358 -35.0354
     7.8344   8.0920   8.0922   8.2370   8.3182   8.3187   8.3262   8.3515
     8.5545   8.5546   8.5566   8.5584   8.5760   8.7020   8.8028   8.8036
     8.8749   9.1582   9.3087   9.3087   9.3198   9.3199   9.3351   9.3401
     9.4431   9.4879   9.4881   9.5756   9.5799   9.5884   9.5887   9.6628
     9.6629   9.7490   9.8332   9.8333   9.8916   9.9034   9.9864   9.9923
     9.9934  10.0902  10.0906  10.0915  10.0979  10.1430  10.1786  10.1866
    10.1998  10.2387  10.2672  10.2781  10.3765  10.4529  10.4538  10.4735
    10.4871  10.4871  10.4885  10.4886  10.5511  10.5597  10.5609  10.7451
    11.0329  11.1815  11.1819  11.2188  11.2448  11.3251  11.4082  11.5474
    11.5478  11.5735  11.6524  11.7208  11.7405  11.7410  11.7969  11.7973
    11.9341  11.9351  11.9568  11.9570  11.9741  12.0074  12.0298  12.0681
    12.0683  12.0689  12.0738  12.1497  12.2322  12.2325  12.2650  12.2792
    12.2796  12.2850  12.2854  12.3171  12.3539  12.5011  12.5317  12.6374
    12.6924  12.6944  12.6958  12.6964  12.7328  12.7330  12.7905  12.7907
    12.7917  12.8252  12.9262  12.9410  12.9414  12.9743  13.0820  13.0990
    13.0998  13.1604  13.2114  13.2122  13.2302  13.2624  13.3264  13.3928
    14.1788  14.1788  14.5185  14.7555  14.8666  15.3205  15.3205  15.7843
    15.7844  16.5004  16.8822  17.0545  17.1639  17.1640  18.4229  18.5920
    18.6703  18.8895

          k = 0.0000-0.3536-0.1360 ( 13676 PWs)   bands (ev):

   -66.3213 -66.3202 -66.3158 -66.3157 -66.3151 -66.3146 -66.3146 -66.3143
   -35.0945 -35.0929 -35.0889 -35.0886 -35.0884 -35.0884 -35.0880 -35.0876
   -35.0517 -35.0514 -35.0499 -35.0488 -35.0475 -35.0464 -35.0444 -35.0438
   -35.0418 -35.0416 -35.0396 -35.0388 -35.0380 -35.0370 -35.0358 -35.0355
     6.1683   7.0524   7.3118   8.0093   8.0644   8.2721   8.4421   8.4865
     8.7234   8.7476   8.9038   8.9628   9.0384   9.1870   9.1985   9.2068
     9.2187   9.2922   9.3096   9.3235   9.3314   9.3534   9.3608   9.4281
     9.4669   9.4870   9.5141   9.6147   9.6858   9.7329   9.7953   9.8282
     9.8680   9.8979   9.9226   9.9462   9.9782   9.9966  10.0138  10.0248
    10.0872  10.0987  10.1080  10.1428  10.2137  10.2559  10.3587  10.3626
    10.4118  10.4126  10.4835  10.5146  10.5419  10.5455  10.5531  10.5693
    10.6337  10.6548  10.6923  10.7028  10.7037  10.7480  10.7981  10.8061
    10.9560  10.9623  10.9844  11.0691  11.1443  11.1806  11.2396  11.2828
    11.2833  11.3208  11.3995  11.4437  11.5585  11.6330  11.6345  11.6524
    11.6536  11.6804  11.6808  11.6928  11.7029  11.7626  11.8253  11.8307
    11.8459  11.9081  11.9200  11.9408  12.0044  12.0310  12.0380  12.0638
    12.1172  12.1274  12.2457  12.2961  12.3031  12.3223  12.3305  12.3677
    12.3944  12.3977  12.4699  12.4854  12.4972  12.5642  12.5777  12.6619
    12.7249  12.7484  12.8966  12.9403  12.9424  13.0392  13.0437  13.0609
    13.1256  13.1276  13.1864  13.1960  13.3720  13.5260  13.8098  14.0750
    14.1033  15.1347  15.8372  15.8472  15.8997  15.9106  16.5334  16.8153
    16.8710  17.4701  17.6113  17.6146  18.2815  18.2978  18.8432  19.1458
    19.2174  19.7076

[...]
    11.9929  11.9931  12.2291  12.2295  12.2476  12.2477  12.2478  12.2480
    12.4614  12.4624  12.7401  12.7404  12.7406  12.7408  12.7732  12.7733
    14.0597  14.0601  14.0603  14.0610  15.0674  15.0677  15.4373  15.4378
    15.5593  15.5598  15.5610  15.5623  15.7331  15.7338  16.7481  16.7538
    16.9337  16.9348  16.9472  16.9487  16.9487  16.9506  17.0894  17.0962
    17.3681  17.3707  17.4080  17.4101  17.4102  17.4108  17.4117  17.4131
    17.4229  17.4259  17.4775  17.4780  17.4797  17.4813  18.0505  18.0520
    18.0537  18.0572  18.0848  18.0875  18.4713  18.4740  18.4750  18.4761
    18.4933  18.4933  18.8808  18.8820  19.7505  19.7511  20.3722  20.3727
    20.5102  20.5102

          k =-0.3536 0.3536-0.5441 ( 13686 PWs)   bands (ev):

   -61.7961 -61.7950 -61.7918 -61.7913 -61.7907 -61.7907 -61.7907 -61.7903
   -30.6292 -30.6291 -30.6283 -30.6282 -30.6265 -30.6260 -30.6253 -30.6253
   -30.6249 -30.6249 -30.6224 -30.6217 -30.6213 -30.6212 -30.6201 -30.6192
   -30.6169 -30.6150 -30.6147 -30.6144 -30.6143 -30.6134 -30.6131 -30.6126
     7.1043   7.1051   8.1234   8.1243   8.8261   8.8263   8.9590   8.9592
     9.2347   9.2348   9.3586   9.3590   9.3687   9.3694   9.3974   9.3978
     9.4242   9.4248   9.5336   9.5341   9.6028   9.6032   9.6637   9.6650
     9.7398   9.7406   9.9246   9.9246   9.9691   9.9692  10.1482  10.1488
    10.1505  10.1505  10.3360  10.3361  10.4019  10.4024  10.4117  10.4122
    10.5559  10.5564  10.6529  10.6536  10.9061  10.9069  10.9677  10.9682
    10.9968  10.9969  11.0628  11.0629  11.1004  11.1011  11.2367  11.2370
    11.3297  11.3299  11.4334  11.4335  11.4902  11.4911  11.7568  11.7570
    11.7715  11.7715  11.9364  11.9371  12.1095  12.1102  12.1486  12.1486
    12.1732  12.1736  12.3468  12.3470  12.3584  12.3592  12.3911  12.3915
    12.5297  12.5303  12.6616  12.6621  12.8097  12.8102  12.9822  12.9824
    13.0671  13.0685  13.8023  13.8030  14.4731  14.4744  14.6767  14.6778
    15.3061  15.3097  15.3456  15.3481  15.5851  15.5855  17.0171  17.0189
    17.0754  17.0799  17.0897  17.0899  17.1995  17.1999  17.3118  17.3183
    17.3612  17.3618  17.3861  17.3874  17.4071  17.4104  17.4286  17.4322
    17.4488  17.4510  17.4875  17.4924  17.5133  17.5153  17.8697  17.8703
    17.9127  17.9148  17.9541  17.9545  18.2958  18.2987  18.5371  18.5419
    18.8775  18.8791  18.9410  18.9433  19.2380  19.2388  19.6568  19.6587
    20.8497  20.8504

          k =-0.3536 0.3536 1.0883 ( 13708 PWs)   bands (ev):

   -61.7960 -61.7950 -61.7917 -61.7913 -61.7907 -61.7907 -61.7907 -61.7903
   -30.6293 -30.6292 -30.6284 -30.6282 -30.6265 -30.6261 -30.6254 -30.6253
   -30.6249 -30.6248 -30.6226 -30.6217 -30.6212 -30.6212 -30.6201 -30.6193
   -30.6169 -30.6150 -30.6147 -30.6144 -30.6142 -30.6134 -30.6130 -30.6126
     8.2025   8.2029   8.4945   8.4948   8.4949   8.4957   8.8389   8.8395
     8.9602   8.9610   9.1455   9.1457   9.1463   9.1468   9.3328   9.3338
     9.4107   9.4112   9.5549   9.5557   9.7269   9.7270   9.7588   9.7592
     9.7592   9.7596   9.9456   9.9468  10.0415  10.0415  10.0417  10.0418
    10.0955  10.0955  10.0957  10.0957  10.1445  10.1457  10.2448  10.2455
    10.4868  10.4869  10.4874  10.4876  10.5935  10.5941  10.7311  10.7318
    10.7813  10.7818  11.2981  11.2985  11.2988  11.2989  11.3573  11.3574
    11.3967  11.3971  11.5419  11.5421  11.5421  11.5425  11.6538  11.6544
    11.9945  11.9945  11.9950  11.9950  12.1867  12.1873  12.2471  12.2474
    12.2476  12.2477  12.3687  12.3692  12.4237  12.4246  12.4962  12.4970
    12.5208  12.5208  12.7367  12.7368  12.7370  12.7380  12.9666  12.9679
    13.3570  13.3578  13.8362  13.8395  14.0614  14.0621  14.0623  14.0633
    15.3944  15.3944  15.5602  15.5607  15.5621  15.5632  16.9357  16.9367
    16.9428  16.9447  16.9458  16.9465  17.2816  17.2846  17.2965  17.2976
    17.3991  17.4004  17.4092  17.4112  17.4119  17.4123  17.4742  17.4742
    17.4762  17.4767  17.5602  17.5688  17.6222  17.6237  17.6502  17.6528
    17.9770  17.9793  18.0532  18.0552  18.0561  18.0597  18.4739  18.4763
    18.4781  18.4783  18.5112  18.5173  18.5272  18.5306  19.6118  19.6128
    20.0000  20.0004

          k =-0.5303 0.1768-0.1360 ( 13660 PWs)   bands (ev):

   -61.7961 -61.7951 -61.7918 -61.7913 -61.7909 -61.7908 -61.7906 -61.7903
   -30.6297 -30.6295 -30.6291 -30.6288 -30.6262 -30.6259 -30.6249 -30.6238
   -30.6237 -30.6231 -30.6223 -30.6218 -30.6213 -30.6210 -30.6202 -30.6192
   -30.6182 -30.6171 -30.6164 -30.6162 -30.6126 -30.6125 -30.6124 -30.6120
     6.6969   6.6978   7.7888   7.7897   8.6890   8.6891   8.9742   8.9748
     9.2254   9.2257   9.2390   9.2392   9.4406   9.4415   9.5633   9.5634
     9.6554   9.6555   9.7767   9.7770   9.8094   9.8094   9.8468   9.8468
    10.0074  10.0077  10.0596  10.0601  10.0807  10.0808  10.1293  10.1297
    10.1333  10.1337  10.2091  10.2093  10.3481  10.3488  10.4162  10.4162
    10.4200  10.4201  10.7931  10.7931  10.8257  10.8260  10.9014  10.9020
    10.9235  10.9237  11.1715  11.1717  11.2193  11.2196  11.2821  11.2827
    11.2858  11.2859  11.4150  11.4157  11.4604  11.4608  11.6123  11.6123
    11.6286  11.6293  11.6523  11.6528  11.6980  11.6985  11.9255  11.9257
    12.0067  12.0072  12.1831  12.1838  12.4397  12.4400  12.4410  12.4419
    12.5304  12.5306  12.5469  12.5474  12.8247  12.8250  13.0900  13.0901
    13.6952  13.6961  14.5161  14.5166  14.8521  14.8524  15.1222  15.1233
    15.2996  15.3001  15.3030  15.3033  16.0937  16.0972  16.4778  16.4806
    17.0520  17.0546  17.1461  17.1474  17.1715  17.1784  17.2841  17.2863
    17.3248  17.3256  17.3683  17.3711  17.3924  17.3954  17.4224  17.4250
    17.4481  17.4506  17.5252  17.5282  17.6048  17.6068  17.9458  17.9484
    18.0321  18.0345  18.3561  18.3564  18.4239  18.4267  18.6339  18.6345
    18.6428  18.6434  18.7150  18.7175  19.3524  19.3527  20.1610  20.1615
    21.0213  21.0217

          k =-0.5303 0.1768-0.6802 ( 13694 PWs)   bands (ev):

   -61.7960 -61.7951 -61.7916 -61.7912 -61.7909 -61.7908 -61.7906 -61.7903
   -30.6298 -30.6296 -30.6291 -30.6288 -30.6263 -30.6259 -30.6250 -30.6238
   -30.6237 -30.6232 -30.6224 -30.6218 -30.6212 -30.6210 -30.6201 -30.6192
   -30.6182 -30.6171 -30.6164 -30.6161 -30.6126 -30.6125 -30.6124 -30.6120
     7.4953   7.4961   7.5541   7.5550   9.0028   9.0030   9.0603   9.0609
     9.1535   9.1539   9.2395   9.2395   9.3588   9.3591   9.4477   9.4478
     9.5546   9.5547   9.6004   9.6004   9.6111   9.6113   9.6465   9.6465
     9.7749   9.7749   9.8042   9.8047   9.9808   9.9809  10.0609  10.0612
    10.1505  10.1510  10.2948  10.2949  10.4124  10.4128  10.5261  10.5265
    10.5358  10.5359  10.6038  10.6044  10.7716  10.7722  11.0183  11.0185
    11.0633  11.0634  11.0750  11.0759  11.1635  11.1636  11.1904  11.1904
    11.3513  11.3517  11.3851  11.3857  11.4820  11.4821  11.5836  11.5838
    11.6046  11.6047  11.8783  11.8790  12.1032  12.1038  12.2112  12.2117
    12.2551  12.2552  12.2721  12.2724  12.3913  12.3919  12.4024  12.4027
    12.5178  12.5178  12.6201  12.6201  13.1859  13.1862  13.2398  13.2411
    13.4081  13.4089  13.4737  13.4738  14.1250  14.1265  14.5380  14.5387
    15.2969  15.2974  15.3333  15.3355  15.9235  15.9266  16.8859  16.8891
    17.1021  17.1026  17.2212  17.2259  17.2574  17.2583  17.3093  17.3136
    17.4115  17.4139  17.4140  17.4157  17.4171  17.4205  17.4350  17.4361
    17.4615  17.4626  17.6027  17.6057  17.6292  17.6310  17.7606  17.7635
    17.7816  17.7842  18.2409  18.2415  18.4028  18.4057  18.5375  18.5402
    18.5406  18.5422  19.1096  19.1115  19.1240  19.1268  19.3644  19.3654
    20.1740  20.1748

          k =-0.5303 0.1768 0.9522 ( 13712 PWs)   bands (ev):

   -61.7960 -61.7951 -61.7916 -61.7912 -61.7909 -61.7908 -61.7906 -61.7903
   -30.6298 -30.6297 -30.6291 -30.6289 -30.6263 -30.6260 -30.6250 -30.6237
   -30.6236 -30.6232 -30.6225 -30.6218 -30.6212 -30.6210 -30.6201 -30.6192
   -30.6181 -30.6171 -30.6164 -30.6161 -30.6126 -30.6125 -30.6123 -30.6120
     8.1173   8.1178   8.1957   8.1963   8.8049   8.8055   8.8735   8.8741
     8.9647   8.9655   9.0403   9.0406   9.2324   9.2327   9.3668   9.3675
     9.4507   9.4509   9.5900   9.5903   9.7183   9.7186   9.7287   9.7297
     9.7343   9.7348   9.8830   9.8831   9.9600   9.9610   9.9945   9.9947
    10.1025  10.1031  10.1798  10.1808  10.1917  10.1920  10.2061  10.2064
    10.3355  10.3359  10.5474  10.5480  10.8729  10.8733  10.8822  10.8825
    10.9290  10.9292  11.2527  11.2529  11.2963  11.2965  11.3321  11.3321
    11.3338  11.3340  11.4193  11.4197  11.5561  11.5564  11.7718  11.7719
    11.9603  11.9605  12.0319  12.0323  12.1665  12.1671  12.1697  12.1700
    12.3781  12.3783  12.3888  12.3889  12.4309  12.4311  12.4956  12.4963
    12.5355  12.5357  12.6084  12.6086  12.9378  12.9385  12.9666  12.9678
    13.3107  13.3115  13.5684  13.5686  13.9618  13.9648  14.0739  14.0758
    15.0441  15.0448  15.4673  15.4703  15.7431  15.7449  16.8927  16.8941
    16.9868  16.9871  17.0182  17.0199  17.1624  17.1647  17.2967  17.2997
    17.3491  17.3496  17.3890  17.3894  17.4140  17.4143  17.4613  17.4657
    17.4998  17.5011  17.5950  17.5978  17.6097  17.6122  17.6725  17.6752
    17.8136  17.8166  17.9032  17.9056  18.3965  18.3994  18.4397  18.4437
    18.4998  18.5035  18.6058  18.6107  18.6775  18.6798  18.7788  18.7797
    20.3176  20.3183

          k =-0.5303 0.1768 0.4081 ( 13670 PWs)   bands (ev):

   -61.7961 -61.7951 -61.7917 -61.7913 -61.7909 -61.7908 -61.7906 -61.7903
   -30.6298 -30.6295 -30.6291 -30.6289 -30.6262 -30.6259 -30.6249 -30.6237
   -30.6236 -30.6231 -30.6224 -30.6219 -30.6213 -30.6210 -30.6202 -30.6191
   -30.6181 -30.6171 -30.6165 -30.6162 -30.6126 -30.6125 -30.6123 -30.6120
     6.9768   6.9776   8.6086   8.6092   8.6522   8.6530   8.8774   8.8775
     8.8930   8.8931   9.2375   9.2378   9.4093   9.4096   9.4475   9.4475
     9.5022   9.5030   9.6208   9.6213   9.7456   9.7460   9.7557   9.7557
     9.8521   9.8525   9.9808   9.9808   9.9979   9.9983  10.0714  10.0716
    10.0997  10.1003  10.1884  10.1886  10.3021  10.3022  10.3891  10.3894
    10.5080  10.5083  10.5914  10.5919  10.9617  10.9620  10.9956  10.9959
    11.0829  11.0833  11.1538  11.1542  11.1939  11.1942  11.2247  11.2249
    11.2986  11.2987  11.5099  11.5102  11.6542  11.6546  11.7530  11.7533
    11.7572  11.7578  11.7826  11.7831  11.9527  11.9532  12.0387  12.0388
    12.2116  12.2120  12.3682  12.3682  12.3906  12.3913  12.4265  12.4266
    12.5255  12.5256  12.6705  12.6706  12.8017  12.8022  12.8485  12.8491
    13.0452  13.0464  14.3367  14.3369  14.4615  14.4617  14.5583  14.5610
    15.1367  15.1397  15.4117  15.4130  15.4450  15.4457  16.7272  16.7294
    16.9312  16.9329  17.1415  17.1423  17.2053  17.2086  17.2974  17.3016
    17.3018  17.3028  17.3171  17.3214  17.3954  17.3990  17.4168  17.4197
    17.4379  17.4397  17.5310  17.5327  17.6394  17.6415  17.7978  17.8004
    17.9177  17.9185  18.0383  18.0397  18.2284  18.2311  18.4974  18.5032
    18.6503  18.6512  18.7737  18.7763  19.6352  19.6353  20.1364  20.1376
    20.2138  20.2148

          k = 0.0000 0.7071 0.2721 ( 13680 PWs)   bands (ev):

   -61.7960 -61.7953 -61.7914 -61.7913 -61.7910 -61.7910 -61.7905 -61.7903
   -30.6301 -30.6297 -30.6297 -30.6294 -30.6263 -30.6259 -30.6228 -30.6227
   -30.6223 -30.6221 -30.6221 -30.6221 -30.6207 -30.6207 -30.6201 -30.6200
   -30.6187 -30.6186 -30.6182 -30.6182 -30.6120 -30.6119 -30.6118 -30.6117
     7.1369   7.1371   7.1378   7.1379   8.9516   8.9518   8.9519   8.9521
     9.3049   9.3050   9.3054   9.3054   9.4069   9.4070   9.4070   9.4072
     9.7543   9.7545   9.7546   9.7546   9.8634   9.8636   9.8637   9.8639
     9.8709   9.8709   9.8709   9.8709  10.1480  10.1481  10.1485  10.1486
    10.2291  10.2293  10.2298  10.2298  10.2433  10.2433  10.2436  10.2438
    10.6221  10.6221  10.6222  10.6222  11.0589  11.0589  11.0592  11.0592
    11.1525  11.1527  11.1532  11.1533  11.1772  11.1773  11.1778  11.1778
    11.3001  11.3001  11.3003  11.3003  11.3990  11.3991  11.3992  11.3993
    11.6897  11.6898  11.6900  11.6901  11.7270  11.7271  11.7272  11.7273
    12.1091  12.1093  12.1095  12.1096  12.4309  12.4309  12.4314  12.4315
    12.5789  12.5790  12.5790  12.5790  13.1620  13.1621  13.1627  13.1627
    14.0048  14.0048  14.0050  14.0050  14.9584  14.9588  14.9589  14.9593
    15.0461  15.0463  15.0467  15.0469  16.3169  16.3177  16.3201  16.3208
    17.2095  17.2107  17.2154  17.2164  17.3063  17.3079  17.3080  17.3091
    17.3664  17.3665  17.3690  17.3696  17.3873  17.3881  17.3902  17.3913
    17.6668  17.6675  17.6703  17.6711  17.7591  17.7598  17.7608  17.7611
    18.2131  18.2132  18.2136  18.2138  18.4942  18.4942  18.4954  18.4959
    18.7994  18.7998  18.7998  18.8000  19.5230  19.5233  19.5242  19.5246
    21.0788  21.0794

          k = 0.0000 0.7071-0.2721 ( 13688 PWs)   bands (ev):

   -61.7959 -61.7952 -61.7914 -61.7913 -61.7910 -61.7910 -61.7905 -61.7903
   -30.6301 -30.6297 -30.6297 -30.6295 -30.6264 -30.6259 -30.6229 -30.6228
   -30.6223 -30.6222 -30.6221 -30.6221 -30.6207 -30.6206 -30.6201 -30.6199
   -30.6187 -30.6186 -30.6182 -30.6181 -30.6120 -30.6119 -30.6118 -30.6117
     7.1373   7.1381   8.0607   8.0614   8.9452   8.9453   8.9524   8.9525
     8.9527   8.9535   9.3035   9.3036   9.3053   9.3056   9.4076   9.4077
     9.5303   9.5311   9.7534   9.7535   9.7546   9.7546   9.8324   9.8328
     9.8620   9.8622   9.8639   9.8646   9.8697   9.8698  10.1467  10.1471
    10.1479  10.1484  10.2289  10.2295  10.2307  10.2308  10.2418  10.2420
    10.4379  10.4380  10.6235  10.6238  11.0606  11.0608  11.0608  11.0610
    11.1517  11.1525  11.1757  11.1757  11.1764  11.1772  11.2684  11.2684
    11.2993  11.2997  11.3987  11.3987  11.4000  11.4001  11.5737  11.5740
    11.6914  11.6914  11.7285  11.7288  12.1080  12.1083  12.1099  12.1100
    12.1132  12.1133  12.2871  12.2871  12.4294  12.4298  12.5730  12.5732
    12.5788  12.5795  12.5802  12.5804  13.0696  13.0706  13.1604  13.1613
    13.1621  13.1622  14.0015  14.0026  14.0029  14.0039  14.9603  14.9611
    15.0451  15.0472  15.0496  15.0503  16.3160  16.3187  16.3632  16.3651
    16.9986  17.0000  17.2095  17.2157  17.2193  17.2200  17.3102  17.3122
    17.3661  17.3672  17.3691  17.3705  17.3861  17.3886  17.3887  17.3900
    17.5336  17.5357  17.6640  17.6669  17.7276  17.7312  17.7564  17.7571
    17.7586  17.7612  18.2140  18.2143  18.3846  18.3867  18.4901  18.4944
    18.4952  18.4969  18.7967  18.8000  18.8029  18.8030  19.5234  19.5247
    21.0793  21.0797

          k = 0.0000 0.7071 1.3603 ( 13696 PWs)   bands (ev):

   -61.7959 -61.7952 -61.7913 -61.7912 -61.7910 -61.7910 -61.7905 -61.7903
   -30.6301 -30.6298 -30.6297 -30.6295 -30.6264 -30.6260 -30.6230 -30.6230
   -30.6223 -30.6222 -30.6221 -30.6221 -30.6206 -30.6206 -30.6200 -30.6199
   -30.6186 -30.6186 -30.6181 -30.6181 -30.6120 -30.6119 -30.6118 -30.6117
     8.0615   8.0616   8.0621   8.0622   8.9449   8.9450   8.9453   8.9454
     8.9524   8.9525   8.9532   8.9533   9.3047   9.3048   9.3048   9.3049
     9.5301   9.5301   9.5309   9.5309   9.7538   9.7538   9.7540   9.7540
     9.8314   9.8316   9.8319   9.8320   9.8631   9.8633   9.8639   9.8640
    10.1450  10.1451  10.1452  10.1452  10.2290  10.2292  10.2292  10.2293
    10.4395  10.4395  10.4399  10.4401  11.0595  11.0595  11.0597  11.0597
    11.1781  11.1781  11.1781  11.1782  11.2658  11.2658  11.2658  11.2659
    11.3985  11.3986  11.3986  11.3987  11.5748  11.5750  11.5751  11.5752
    12.1105  12.1107  12.1108  12.1109  12.1148  12.1149  12.1152  12.1154
    12.2882  12.2883  12.2883  12.2883  12.5711  12.5711  12.5711  12.5711
    12.5784  12.5784  12.5792  12.5792  13.0708  13.0708  13.0716  13.0717
    13.1598  13.1598  13.1600  13.1600  14.0016  14.0021  14.0040  14.0045
    15.0464  15.0471  15.0491  15.0495  16.3642  16.3643  16.3661  16.3661
    16.9996  17.0010  17.0016  17.0025  17.2211  17.2215  17.2216  17.2217
    17.3653  17.3658  17.3689  17.3695  17.3860  17.3865  17.3868  17.3874
    17.5321  17.5327  17.5337  17.5345  17.7252  17.7262  17.7284  17.7294
    17.7552  17.7560  17.7575  17.7584  18.3859  18.3862  18.3879  18.3884
    18.4914  18.4920  18.4952  18.4960  18.7967  18.7971  18.8004  18.8007
    21.0805  21.0808

     the Fermi energy is    15.4615 ev

!    total energy              =  -14693.98750172 Ry
     Harris-Foulkes estimate   =  -14693.98750068 Ry
     estimated scf accuracy    <       0.00000087 Ry

     total all-electron energy =   -626921.583224 Ry

     The total energy is the sum of the following terms:

     one-electron contribution =    -698.94224364 Ry
     hartree contribution      =     651.89427872 Ry
     xc contribution           =    -738.03021890 Ry
     ewald contribution        =   -2207.56121140 Ry
     Hubbard energy            =       0.48023843 Ry
     one-center paw contrib.   =  -11701.82834493 Ry

     total magnetization       =    34.04 Bohr mag/cell
     absolute magnetization    =    36.68 Bohr mag/cell

     convergence has been achieved in  38 iterations

     Writing output data file mnau2.save/
 
     init_run     :     19.57s CPU     20.36s WALL (       1 calls)
     electrons    :   1513.64s CPU   1556.67s WALL (       1 calls)

     Called by init_run:
     wfcinit      :     17.75s CPU     18.39s WALL (       1 calls)
     potinit      :      1.02s CPU      1.07s WALL (       1 calls)
     hinit0       :      0.47s CPU      0.50s WALL (       1 calls)

     Called by electrons:
     c_bands      :   1292.39s CPU   1328.63s WALL (      38 calls)
     sum_band     :    183.56s CPU    189.14s WALL (      38 calls)
     v_of_rho     :      3.10s CPU      3.15s WALL (      39 calls)
     newd         :      8.37s CPU      9.25s WALL (      39 calls)
     PAW_pot      :     26.37s CPU     26.49s WALL (      39 calls)
     mix_rho      :      0.51s CPU      0.53s WALL (      38 calls)

     Called by c_bands:
     init_us_2    :     11.38s CPU     11.48s WALL (    4680 calls)
     cegterg      :   1218.08s CPU   1253.24s WALL (    2280 calls)

     Called by sum_band:
     sum_band:bec :      1.63s CPU      1.65s WALL (    2280 calls)
     addusdens    :     15.50s CPU     16.61s WALL (      38 calls)

     Called by *egterg:
     h_psi        :    606.64s CPU    626.14s WALL (    6117 calls)
     s_psi        :     83.95s CPU     84.35s WALL (    6177 calls)
     g_psi        :      3.23s CPU      3.25s WALL (    3777 calls)
     cdiaghg      :    353.14s CPU    360.03s WALL (    6057 calls)

     Called by h_psi:
     h_psi:pot    :    580.86s CPU    597.19s WALL (    6117 calls)
     h_psi:calbec :     80.50s CPU     85.76s WALL (    6117 calls)
     vloc_psi     :    418.10s CPU    428.36s WALL (    6117 calls)
     add_vuspsi   :     82.20s CPU     83.03s WALL (    6117 calls)
     vhpsi        :     23.26s CPU     23.37s WALL (    6117 calls)

     General routines
     calbec       :    134.60s CPU    141.77s WALL (   16854 calls)
     fft          :      1.58s CPU      1.61s WALL (     971 calls)
     ffts         :      0.08s CPU      0.08s WALL (     154 calls)
     fftw         :    470.89s CPU    482.04s WALL ( 2126322 calls)
     interpolate  :      0.17s CPU      0.18s WALL (      78 calls)
     davcio       :      0.01s CPU      0.57s WALL (      60 calls)
 
     Parallel routines
     fft_scatt_xy :     59.07s CPU     60.38s WALL ( 2127447 calls)
     fft_scatt_yz :    156.19s CPU    160.25s WALL ( 2127447 calls)

     Hubbard U routines
     new_ns       :      7.44s CPU      7.77s WALL (      38 calls)
     vhpsi        :     23.26s CPU     23.37s WALL (    6117 calls)
 
     PWSCF        : 25m37.30s CPU    26m44.58s WALL

 
   This run was terminated on:  12:57:32  26Mar2019            

=------------------------------------------------------------------------------=
   JOB DONE.
=------------------------------------------------------------------------------=
