
     Program PWSCF v.6.3MaX starts on 26Mar2019 at 13:14:23 

     This program is part of the open-source Quantum ESPRESSO suite
     for quantum simulation of materials; please cite
         "P. Giannozzi et al., J. Phys.:Condens. Matter 21 395502 (2009);
         "P. Giannozzi et al., J. Phys.:Condens. Matter 29 465901 (2017);
          URL http://www.quantum-espresso.org", 
     in publications or presentations arising from this work. More details at
     http://www.quantum-espresso.org/quote

     Parallel version (MPI), running on    16 processors

     MPI processes distributed on     1 nodes
     R & G space division:  proc/nbgrp/npool/nimage =      16
     Waiting for input...
     Reading input from standard input

     Current dimensions of program PWSCF are:
     Max number of different atomic species (ntypx) = 10
     Max number of k-points (npk) =  40000
     Max angular momentum in pseudopotentials (lmaxx) =  3
     Message from routine read_upf::
     Pseudo file ./pseudo/Mn.pbe-spn-kjpaw_psl.0.3.1.UPF has been successfully fixed on the fly.
To avoid this message in the future you can permanently fix 
 your pseudo files following instructions given in: 
https://gitlab.com/QEF/q-e/blob/master/upftools/how_to_fix_upf.md
               file Mn.pbe-spn-kjpaw_psl.0.3.1.UPF: wavefunction(s)  3P 3D renormalized
     Message from routine read_upf::
     Pseudo file ./pseudo/Mn.pbe-spn-kjpaw_psl.0.3.1.UPF has been successfully fixed on the fly.
To avoid this message in the future you can permanently fix 
 your pseudo files following instructions given in: 
https://gitlab.com/QEF/q-e/blob/master/upftools/how_to_fix_upf.md
               file Mn.pbe-spn-kjpaw_psl.0.3.1.UPF: wavefunction(s)  3P 3D renormalized
     Message from routine read_upf::
     Pseudo file ./pseudo/Au.pbe-dn-kjpaw_psl.0.1.UPF has been successfully fixed on the fly.
To avoid this message in the future you can permanently fix 
 your pseudo files following instructions given in: 
https://gitlab.com/QEF/q-e/blob/master/upftools/how_to_fix_upf.md
               file Au.pbe-dn-kjpaw_psl.0.1.UPF: wavefunction(s)  6S 6P 5D renormalized

     Subspace diagonalization in iterative solution of the eigenvalue problem:
     one sub-group per band group will be used
     scalapack distributed-memory algorithm (size of sub-group:  2*  2 procs)

     Found symmetry operation: I + (  0.0000 -0.5000  0.0000)
     This is a supercell, fractional translations are disabled
 
     Parallelization info
     --------------------
     sticks:   dense  smooth     PW     G-vecs:    dense   smooth      PW
     Min         646     290     84                22663     6843    1075
     Max         647     291     85                22664     6844    1077
     Sum       10349    4645   1353               362619   109493   17211
 


     bravais-lattice index     =            0
     lattice parameter (alat)  =      18.0125  a.u.
     unit-cell volume          =    2685.0513 (a.u.)^3
     number of atoms/cell      =           24
     number of atomic types    =            3
     number of electrons       =       296.00
     number of Kohn-Sham states=          178
     kinetic-energy cutoff     =      45.0000  Ry
     charge density cutoff     =     400.0000  Ry
     convergence threshold     =      1.0E-06
     mixing beta               =       0.1000
     number of iterations used =            8  plain     mixing
     Exchange-correlation      = SLA PW PBX PBC ( 1  4  3  4 0 0)

     celldm(1)=  18.012490  celldm(2)=   0.000000  celldm(3)=   0.000000
     celldm(4)=   0.000000  celldm(5)=   0.000000  celldm(6)=   0.000000

     crystal axes: (cart. coord. in units of alat)
               a(1) = (   0.707107  -0.707107   0.000000 )  
               a(2) = (  -0.707107  -0.707107   0.000000 )  
               a(3) = (   0.176777   0.176777  -0.459443 )  

     reciprocal axes: (cart. coord. in units 2 pi/alat)
               b(1) = (  0.707107 -0.707107  0.000000 )  
               b(2) = ( -0.707107 -0.707107 -0.544138 )  
               b(3) = (  0.000000  0.000000 -2.176550 )  


     PseudoPot. # 1 for Mn read from file:
     ./pseudo/Mn.pbe-spn-kjpaw_psl.0.3.1.UPF
     MD5 check sum: 7eef95dd2aae66803482eea66ebeebf1
     Pseudo is Projector augmented-wave + core cor, Zval = 15.0
     Generated using "atomic" code by A. Dal Corso v.5.0.99 svn rev. 10869
     Shape of augmentation charge: PSQ
     Using radial grid of 1187 points,  6 beta functions with: 
                l(1) =   0
                l(2) =   0
                l(3) =   1
                l(4) =   1
                l(5) =   2
                l(6) =   2
     Q(r) pseudized with 0 coefficients 


     PseudoPot. # 2 for Mn read from file:
     ./pseudo/Mn.pbe-spn-kjpaw_psl.0.3.1.UPF
     MD5 check sum: 7eef95dd2aae66803482eea66ebeebf1
     Pseudo is Projector augmented-wave + core cor, Zval = 15.0
     Generated using "atomic" code by A. Dal Corso v.5.0.99 svn rev. 10869
     Shape of augmentation charge: PSQ
     Using radial grid of 1187 points,  6 beta functions with: 
                l(1) =   0
                l(2) =   0
                l(3) =   1
                l(4) =   1
                l(5) =   2
                l(6) =   2
     Q(r) pseudized with 0 coefficients 


     PseudoPot. # 3 for Au read from file:
     ./pseudo/Au.pbe-dn-kjpaw_psl.0.1.UPF
     MD5 check sum: 5c9b92683623e7ae2ab3f8e525febab6
     Pseudo is Projector augmented-wave + core cor, Zval = 11.0
     Generated using "atomic" code by A. Dal Corso v.5.0.2 svn rev. 9415
     Shape of augmentation charge: PSQ
     Using radial grid of 1279 points,  6 beta functions with: 
                l(1) =   0
                l(2) =   0
                l(3) =   1
                l(4) =   1
                l(5) =   2
                l(6) =   2
     Q(r) pseudized with 0 coefficients 


     atomic species   valence    mass     pseudopotential
        Mn1           15.00    54.93800     Mn( 1.00)
        Mn2           15.00    54.93800     Mn( 1.00)
        Au            11.00   196.96600     Au( 1.00)

     Starting magnetic structure 
     atomic species   magnetization
        Mn1          1.000
        Mn2         -1.000
        Au           0.000


     Full LDA+U calculation (l_max = 2) with parameters (eV):
     U(  1) =   3.1200   J(  1) =   0.7000   B(  1) =   0.0803
     U(  2) =   3.1200   J(  2) =   0.7000   B(  2) =   0.0803



      2 Sym. Ops. (no inversion) found



   Cartesian axes

     site n.     atom                  positions (alat units)
         1           Mn1 tau(   1) = (   0.3535534  -0.3535534   0.0000000  )
         2           Mn2 tau(   2) = (   0.0000000   0.0000000   0.0000000  )
         3           Mn1 tau(   3) = (   0.0000000  -0.3535534   0.0000000  )
         4           Mn2 tau(   4) = (   0.3535534  -0.7071068   0.0000000  )
         5           Mn2 tau(   5) = (  -0.3535534  -0.3535534   0.0000000  )
         6           Mn1 tau(   6) = (   0.0000000  -0.7071068   0.0000000  )
         7           Mn1 tau(   7) = (  -0.3535534  -0.7071068   0.0000000  )
         8           Mn2 tau(   8) = (   0.0000000  -1.0606602   0.0000000  )
         9           Au  tau(   9) = (  -0.1767767  -0.1767767  -0.1470216  )
        10           Au  tau(  10) = (   0.1767767  -0.5303301  -0.1470216  )
        11           Au  tau(  11) = (  -0.1767767  -0.5303301  -0.1470216  )
        12           Au  tau(  12) = (   0.1767767  -0.8838835  -0.1470216  )
        13           Au  tau(  13) = (  -0.5303301  -0.5303301  -0.1470216  )
        14           Au  tau(  14) = (  -0.1767767  -0.8838835  -0.1470216  )
        15           Au  tau(  15) = (   0.5303301  -0.5303301  -0.1470216  )
        16           Au  tau(  16) = (   0.1767767  -0.1767767  -0.1470216  )
        17           Au  tau(  17) = (   0.3535534  -0.3535534  -0.3124210  )
        18           Au  tau(  18) = (   0.0000000   0.0000000  -0.3124210  )
        19           Au  tau(  19) = (   0.0000000  -0.3535534  -0.3124210  )
        20           Au  tau(  20) = (   0.3535534  -0.7071068  -0.3124210  )
        21           Au  tau(  21) = (  -0.3535534  -0.3535534  -0.3124210  )
        22           Au  tau(  22) = (  -0.0000000  -0.7071068  -0.3124210  )
        23           Au  tau(  23) = (  -0.3535534  -0.7071068  -0.3124210  )
        24           Au  tau(  24) = (   0.0000000  -1.0606602  -0.3124210  )

     number of k points=    30 (tetrahedron method)
                       cart. coord. in units 2pi/alat
        k(    1) = (   0.0000000   0.0000000   0.0000000), wk =   0.0156250
        k(    2) = (   0.0000000   0.0000000  -0.5441376), wk =   0.0312500
        k(    3) = (   0.0000000   0.0000000   1.0882752), wk =   0.0156250
        k(    4) = (  -0.1767767  -0.1767767  -0.1360344), wk =   0.0312500
        k(    5) = (  -0.1767767  -0.1767767  -0.6801720), wk =   0.0312500
        k(    6) = (  -0.1767767  -0.1767767   0.9522408), wk =   0.0312500
        k(    7) = (  -0.1767767  -0.1767767   0.4081032), wk =   0.0312500
        k(    8) = (   0.3535534   0.3535534   0.2720688), wk =   0.0156250
        k(    9) = (   0.3535534   0.3535534  -0.2720688), wk =   0.0312500
        k(   10) = (   0.3535534   0.3535534   1.3603439), wk =   0.0156250
        k(   11) = (   0.1767767  -0.1767767   0.0000000), wk =   0.0312500
        k(   12) = (   0.1767767  -0.1767767  -0.5441376), wk =   0.0625000
        k(   13) = (   0.1767767  -0.1767767   1.0882752), wk =   0.0312500
        k(   14) = (   0.0000000  -0.3535534  -0.1360344), wk =   0.0625000
        k(   15) = (   0.0000000  -0.3535534  -0.6801720), wk =   0.0625000
        k(   16) = (   0.0000000  -0.3535534   0.9522408), wk =   0.0625000
        k(   17) = (   0.0000000  -0.3535534   0.4081032), wk =   0.0625000
        k(   18) = (   0.5303301   0.1767767   0.2720688), wk =   0.0312500
        k(   19) = (   0.5303301   0.1767767  -0.2720688), wk =   0.0625000
        k(   20) = (   0.5303301   0.1767767   1.3603439), wk =   0.0312500
        k(   21) = (  -0.3535534   0.3535534   0.0000000), wk =   0.0156250
        k(   22) = (  -0.3535534   0.3535534  -0.5441376), wk =   0.0312500
        k(   23) = (  -0.3535534   0.3535534   1.0882752), wk =   0.0156250
        k(   24) = (  -0.5303301   0.1767767  -0.1360344), wk =   0.0312500
        k(   25) = (  -0.5303301   0.1767767  -0.6801720), wk =   0.0312500
        k(   26) = (  -0.5303301   0.1767767   0.9522408), wk =   0.0312500
        k(   27) = (  -0.5303301   0.1767767   0.4081032), wk =   0.0312500
        k(   28) = (   0.0000000   0.7071068   0.2720688), wk =   0.0156250
        k(   29) = (   0.0000000   0.7071068  -0.2720688), wk =   0.0312500
        k(   30) = (   0.0000000   0.7071068   1.3603439), wk =   0.0156250

     Dense  grid:   362619 G-vectors     FFT dimensions: ( 120, 120,  60)

     Smooth grid:   109493 G-vectors     FFT dimensions: (  80,  80,  45)

     Estimated max dynamical RAM per process >     286.87 MB

     Estimated total dynamical RAM >       4.48 GB
     Generating pointlists ...
     new r_m :   0.1196 (alat units)  2.1549 (a.u.) for type    1
     new r_m :   0.1196 (alat units)  2.1549 (a.u.) for type    2
     new r_m :   0.1196 (alat units)  2.1549 (a.u.) for type    3

     Check: negative/imaginary core charge=   -0.000006    0.000000

     Initial potential from superposition of free atoms

     starting charge  295.99426, renormalised to  296.00000
     Number of +U iterations with fixed ns =  0
     Starting occupations:
 --- enter write_ns ---
 LDA+U parameters:
U(  1) =   3.1200   J(  1) =   0.7000   B(  1) =   0.0803
U(  2) =   3.1200   J(  2) =   0.7000   B(  2) =   0.0803
atom    1   Tr[ns(na)] (up, down, total) =   5.00000  0.00000  5.00000
   spin  1
    eigenvalues: 
  1.000  1.000  1.000  1.000  1.000
    eigenvectors:
  1.000  0.000  0.000  0.000  0.000
  0.000  1.000  0.000  0.000  0.000
  0.000  0.000  1.000  0.000  0.000
  0.000  0.000  0.000  1.000  0.000
  0.000  0.000  0.000  0.000  1.000
    occupations:
  1.000  0.000  0.000  0.000  0.000
  0.000  1.000  0.000  0.000  0.000
  0.000  0.000  1.000  0.000  0.000
  0.000  0.000  0.000  1.000  0.000
  0.000  0.000  0.000  0.000  1.000
   spin  2
    eigenvalues: 
  0.000  0.000  0.000  0.000  0.000
    eigenvectors:
  1.000  0.000  0.000  0.000  0.000
  0.000  1.000  0.000  0.000  0.000
  0.000  0.000  1.000  0.000  0.000
  0.000  0.000  0.000  1.000  0.000
  0.000  0.000  0.000  0.000  1.000
    occupations:
  0.000  0.000  0.000  0.000  0.000
  0.000  0.000  0.000  0.000  0.000
  0.000  0.000  0.000  0.000  0.000
  0.000  0.000  0.000  0.000  0.000
  0.000  0.000  0.000  0.000  0.000
atomic mag. moment =     5.000000
atom    2   Tr[ns(na)] (up, down, total) =   0.00000  5.00000  5.00000
   spin  1
    eigenvalues: 
  0.000  0.000  0.000  0.000  0.000
    eigenvectors:
  1.000  0.000  0.000  0.000  0.000
  0.000  1.000  0.000  0.000  0.000
  0.000  0.000  1.000  0.000  0.000
  0.000  0.000  0.000  1.000  0.000
  0.000  0.000  0.000  0.000  1.000
    occupations:
  0.000  0.000  0.000  0.000  0.000
  0.000  0.000  0.000  0.000  0.000
  0.000  0.000  0.000  0.000  0.000
  0.000  0.000  0.000  0.000  0.000
  0.000  0.000  0.000  0.000  0.000
   spin  2
    eigenvalues: 
  1.000  1.000  1.000  1.000  1.000
    eigenvectors:
  1.000  0.000  0.000  0.000  0.000
  0.000  1.000  0.000  0.000  0.000
  0.000  0.000  1.000  0.000  0.000
  0.000  0.000  0.000  1.000  0.000
  0.000  0.000  0.000  0.000  1.000
    occupations:
  1.000  0.000  0.000  0.000  0.000
  0.000  1.000  0.000  0.000  0.000
  0.000  0.000  1.000  0.000  0.000
  0.000  0.000  0.000  1.000  0.000
  0.000  0.000  0.000  0.000  1.000
atomic mag. moment =    -5.000000
atom    3   Tr[ns(na)] (up, down, total) =   5.00000  0.00000  5.00000
   spin  1
    eigenvalues: 
  1.000  1.000  1.000  1.000  1.000
    eigenvectors:
  1.000  0.000  0.000  0.000  0.000
  0.000  1.000  0.000  0.000  0.000
  0.000  0.000  1.000  0.000  0.000
  0.000  0.000  0.000  1.000  0.000
  0.000  0.000  0.000  0.000  1.000
    occupations:
  1.000  0.000  0.000  0.000  0.000
  0.000  1.000  0.000  0.000  0.000
  0.000  0.000  1.000  0.000  0.000
  0.000  0.000  0.000  1.000  0.000
  0.000  0.000  0.000  0.000  1.000
   spin  2
    eigenvalues: 
  0.000  0.000  0.000  0.000  0.000
    eigenvectors:
  1.000  0.000  0.000  0.000  0.000
  0.000  1.000  0.000  0.000  0.000
  0.000  0.000  1.000  0.000  0.000
  0.000  0.000  0.000  1.000  0.000
  0.000  0.000  0.000  0.000  1.000
    occupations:
  0.000  0.000  0.000  0.000  0.000
  0.000  0.000  0.000  0.000  0.000
  0.000  0.000  0.000  0.000  0.000
  0.000  0.000  0.000  0.000  0.000
  0.000  0.000  0.000  0.000  0.000
atomic mag. moment =     5.000000
atom    4   Tr[ns(na)] (up, down, total) =   0.00000  5.00000  5.00000
   spin  1
    eigenvalues: 
  0.000  0.000  0.000  0.000  0.000
    eigenvectors:
  1.000  0.000  0.000  0.000  0.000
  0.000  1.000  0.000  0.000  0.000
  0.000  0.000  1.000  0.000  0.000
  0.000  0.000  0.000  1.000  0.000
  0.000  0.000  0.000  0.000  1.000
    occupations:
  0.000  0.000  0.000  0.000  0.000
  0.000  0.000  0.000  0.000  0.000
  0.000  0.000  0.000  0.000  0.000
  0.000  0.000  0.000  0.000  0.000
  0.000  0.000  0.000  0.000  0.000
   spin  2
    eigenvalues: 
  1.000  1.000  1.000  1.000  1.000
    eigenvectors:
  1.000  0.000  0.000  0.000  0.000
  0.000  1.000  0.000  0.000  0.000
  0.000  0.000  1.000  0.000  0.000
  0.000  0.000  0.000  1.000  0.000
  0.000  0.000  0.000  0.000  1.000
    occupations:
  1.000  0.000  0.000  0.000  0.000
  0.000  1.000  0.000  0.000  0.000
  0.000  0.000  1.000  0.000  0.000
  0.000  0.000  0.000  1.000  0.000
  0.000  0.000  0.000  0.000  1.000
atomic mag. moment =    -5.000000
atom    5   Tr[ns(na)] (up, down, total) =   0.00000  5.00000  5.00000
   spin  1
    eigenvalues: 
  0.000  0.000  0.000  0.000  0.000
    eigenvectors:
  1.000  0.000  0.000  0.000  0.000
  0.000  1.000  0.000  0.000  0.000
  0.000  0.000  1.000  0.000  0.000
  0.000  0.000  0.000  1.000  0.000
  0.000  0.000  0.000  0.000  1.000
    occupations:
  0.000  0.000  0.000  0.000  0.000
  0.000  0.000  0.000  0.000  0.000
  0.000  0.000  0.000  0.000  0.000
  0.000  0.000  0.000  0.000  0.000
  0.000  0.000  0.000  0.000  0.000
   spin  2
    eigenvalues: 
  1.000  1.000  1.000  1.000  1.000
    eigenvectors:
  1.000  0.000  0.000  0.000  0.000
  0.000  1.000  0.000  0.000  0.000
  0.000  0.000  1.000  0.000  0.000
  0.000  0.000  0.000  1.000  0.000
  0.000  0.000  0.000  0.000  1.000
    occupations:
  1.000  0.000  0.000  0.000  0.000
  0.000  1.000  0.000  0.000  0.000
  0.000  0.000  1.000  0.000  0.000
  0.000  0.000  0.000  1.000  0.000
  0.000  0.000  0.000  0.000  1.000
atomic mag. moment =    -5.000000
atom    6   Tr[ns(na)] (up, down, total) =   5.00000  0.00000  5.00000
   spin  1
    eigenvalues: 
  1.000  1.000  1.000  1.000  1.000
    eigenvectors:
  1.000  0.000  0.000  0.000  0.000
  0.000  1.000  0.000  0.000  0.000
  0.000  0.000  1.000  0.000  0.000
  0.000  0.000  0.000  1.000  0.000
  0.000  0.000  0.000  0.000  1.000
    occupations:
  1.000  0.000  0.000  0.000  0.000
  0.000  1.000  0.000  0.000  0.000
  0.000  0.000  1.000  0.000  0.000
  0.000  0.000  0.000  1.000  0.000
  0.000  0.000  0.000  0.000  1.000
   spin  2
    eigenvalues: 
  0.000  0.000  0.000  0.000  0.000
    eigenvectors:
  1.000  0.000  0.000  0.000  0.000
  0.000  1.000  0.000  0.000  0.000
  0.000  0.000  1.000  0.000  0.000
  0.000  0.000  0.000  1.000  0.000
  0.000  0.000  0.000  0.000  1.000
    occupations:
  0.000  0.000  0.000  0.000  0.000
  0.000  0.000  0.000  0.000  0.000
  0.000  0.000  0.000  0.000  0.000
  0.000  0.000  0.000  0.000  0.000
  0.000  0.000  0.000  0.000  0.000
atomic mag. moment =     5.000000
atom    7   Tr[ns(na)] (up, down, total) =   5.00000  0.00000  5.00000
   spin  1
    eigenvalues: 
  1.000  1.000  1.000  1.000  1.000
    eigenvectors:
  1.000  0.000  0.000  0.000  0.000
  0.000  1.000  0.000  0.000  0.000
  0.000  0.000  1.000  0.000  0.000
  0.000  0.000  0.000  1.000  0.000
  0.000  0.000  0.000  0.000  1.000
    occupations:
  1.000  0.000  0.000  0.000  0.000
  0.000  1.000  0.000  0.000  0.000
  0.000  0.000  1.000  0.000  0.000
  0.000  0.000  0.000  1.000  0.000
  0.000  0.000  0.000  0.000  1.000
   spin  2
    eigenvalues: 
  0.000  0.000  0.000  0.000  0.000
    eigenvectors:
  1.000  0.000  0.000  0.000  0.000
  0.000  1.000  0.000  0.000  0.000
  0.000  0.000  1.000  0.000  0.000
  0.000  0.000  0.000  1.000  0.000
  0.000  0.000  0.000  0.000  1.000
    occupations:
  0.000  0.000  0.000  0.000  0.000
  0.000  0.000  0.000  0.000  0.000
  0.000  0.000  0.000  0.000  0.000
  0.000  0.000  0.000  0.000  0.000
  0.000  0.000  0.000  0.000  0.000
atomic mag. moment =     5.000000
atom    8   Tr[ns(na)] (up, down, total) =   0.00000  5.00000  5.00000
   spin  1
    eigenvalues: 
  0.000  0.000  0.000  0.000  0.000
    eigenvectors:
  1.000  0.000  0.000  0.000  0.000
  0.000  1.000  0.000  0.000  0.000
  0.000  0.000  1.000  0.000  0.000
  0.000  0.000  0.000  1.000  0.000
  0.000  0.000  0.000  0.000  1.000
    occupations:
  0.000  0.000  0.000  0.000  0.000
  0.000  0.000  0.000  0.000  0.000
  0.000  0.000  0.000  0.000  0.000
  0.000  0.000  0.000  0.000  0.000
  0.000  0.000  0.000  0.000  0.000
   spin  2
    eigenvalues: 
  1.000  1.000  1.000  1.000  1.000
    eigenvectors:
  1.000  0.000  0.000  0.000  0.000
  0.000  1.000  0.000  0.000  0.000
  0.000  0.000  1.000  0.000  0.000
  0.000  0.000  0.000  1.000  0.000
  0.000  0.000  0.000  0.000  1.000
    occupations:
  1.000  0.000  0.000  0.000  0.000
  0.000  1.000  0.000  0.000  0.000
  0.000  0.000  1.000  0.000  0.000
  0.000  0.000  0.000  1.000  0.000
  0.000  0.000  0.000  0.000  1.000
atomic mag. moment =    -5.000000
N of occupied +U levels =   40.000000
 --- exit write_ns ---
 Atomic wfc used for LDA+U Projector are NOT orthogonalized
     Starting wfcs are  224 randomized atomic wfcs
     Checking if some PAW data can be deallocated... 

     total cpu time spent up to now is       23.4 secs

     Self-consistent Calculation

     iteration #  1     ecut=    45.00 Ry     beta= 0.10
     Davidson diagonalization with overlap
     ethr =  1.00E-02,  avg # of iterations =  4.8
 --- enter write_ns ---
 LDA+U parameters:
U(  1) =   3.1200   J(  1) =   0.7000   B(  1) =   0.0803
U(  2) =   3.1200   J(  2) =   0.7000   B(  2) =   0.0803
atom    1   Tr[ns(na)] (up, down, total) =   5.01482  0.27382  5.28863
   spin  1
    eigenvalues: 
  1.003  1.003  1.003  1.003  1.004
    eigenvectors:
  0.000  0.000  0.000  1.000  0.000
  0.000  0.500  0.500  0.000  0.000
  0.000  0.500  0.500  0.000  0.000
  0.000  0.000  0.000  0.000  1.000
  0.999  0.000  0.001  0.000  0.000
    occupations:
  1.003 -0.000 -0.000 -0.000 -0.000
 -0.000  1.003  0.000  0.000  0.000
 -0.000  0.000  1.003 -0.000  0.000
 -0.000  0.000 -0.000  1.004 -0.000
 -0.000  0.000  0.000 -0.000  1.003
   spin  2
    eigenvalues: 
  0.041  0.051  0.054  0.055  0.072
    eigenvectors:
  0.000  0.993  0.007  0.000  0.000
  0.000  0.004  0.496  0.500  0.000
  0.000  0.004  0.496  0.500  0.000
  1.000  0.000  0.000  0.000  0.000
  0.000  0.000  0.000  0.000  1.000
    occupations:
  0.051  0.000  0.000 -0.000 -0.000
  0.000  0.055 -0.000 -0.000 -0.000
  0.000 -0.000  0.055  0.000 -0.000
 -0.000 -0.000  0.000  0.041 -0.000
 -0.000 -0.000 -0.000 -0.000  0.072
atomic mag. moment =     4.741000
atom    2   Tr[ns(na)] (up, down, total) =   0.27443  5.01491  5.28935
   spin  1
    eigenvalues: 
  0.041  0.051  0.054  0.055  0.072
    eigenvectors:
  0.000  0.988  0.012  0.000  0.000
  0.000  0.006  0.494  0.500  0.000
  0.000  0.006  0.494  0.500  0.000
  1.000  0.000  0.000  0.000  0.000
  0.000  0.000  0.000  0.000  1.000
    occupations:
  0.051  0.000  0.000 -0.000 -0.000
  0.000  0.055 -0.000 -0.000  0.000
  0.000 -0.000  0.055  0.000  0.000
 -0.000 -0.000  0.000  0.041 -0.000
 -0.000  0.000  0.000 -0.000  0.072
   spin  2
    eigenvalues: 
  1.003  1.003  1.003  1.003  1.004
    eigenvectors:
  0.002  0.000  0.000  0.998  0.000
  0.001  0.499  0.500  0.000  0.000
  0.001  0.499  0.500  0.000  0.000
  0.000  0.000  0.000  0.000  1.000
  0.996  0.002  0.000  0.002  0.000
    occupations:
  1.003  0.000  0.000 -0.000 -0.000
  0.000  1.003 -0.000 -0.000 -0.000
  0.000 -0.000  1.003  0.000 -0.000
 -0.000 -0.000  0.000  1.004 -0.000
 -0.000 -0.000 -0.000 -0.000  1.003
atomic mag. moment =    -4.740479
atom    3   Tr[ns(na)] (up, down, total) =   5.01485  0.27445  5.28930
   spin  1
    eigenvalues: 
  1.003  1.003  1.003  1.003  1.004
    eigenvectors:
  0.000  0.000  0.000  0.997  0.002
  0.000  0.024  0.976  0.000  0.000
  0.000  0.976  0.024  0.000  0.000
  0.000  0.000  0.000  0.002  0.998
  0.999  0.000  0.000  0.000  0.000
    occupations:
  1.003  0.000  0.000  0.000 -0.000
  0.000  1.003  0.000 -0.000 -0.000
  0.000  0.000  1.003  0.000 -0.000
  0.000 -0.000  0.000  1.004  0.000
 -0.000 -0.000 -0.000  0.000  1.003
   spin  2
    eigenvalues: 
  0.041  0.051  0.054  0.055  0.072
    eigenvectors:
  0.000  0.992  0.007  0.000  0.000
  0.000  0.004  0.425  0.571  0.000
  0.000  0.003  0.568  0.429  0.000
  1.000  0.000  0.000  0.000  0.000
  0.000  0.000  0.000  0.000  1.000
    occupations:
  0.051  0.000  0.000  0.000 -0.000
  0.000  0.055 -0.000 -0.000 -0.000
  0.000 -0.000  0.055  0.000  0.000
  0.000 -0.000  0.000  0.041  0.000
 -0.000 -0.000  0.000  0.000  0.072
atomic mag. moment =     4.740407
atom    4   Tr[ns(na)] (up, down, total) =   0.27428  5.01470  5.28899
   spin  1
    eigenvalues: 
  0.041  0.051  0.054  0.055  0.072
    eigenvectors:
  0.000  0.990  0.009  0.000  0.000
  0.000  0.005  0.444  0.551  0.000
  0.000  0.004  0.547  0.449  0.000
  1.000  0.000  0.000  0.000  0.000
  0.000  0.000  0.000  0.000  1.000
    occupations:
  0.051  0.000  0.000 -0.000 -0.000
  0.000  0.055 -0.000 -0.000  0.000
  0.000 -0.000  0.055  0.000  0.000
 -0.000 -0.000  0.000  0.041  0.000
 -0.000  0.000  0.000  0.000  0.072
   spin  2
    eigenvalues: 
  1.003  1.003  1.003  1.003  1.004
    eigenvectors:
  0.001  0.000  0.000  0.999  0.000
  0.000  0.617  0.382  0.000  0.000
  0.000  0.382  0.617  0.000  0.000
  0.000  0.000  0.000  0.000  0.999
  0.999  0.000  0.000  0.001  0.000
    occupations:
  1.003 -0.000 -0.000  0.000 -0.000
 -0.000  1.003  0.000 -0.000 -0.000
 -0.000  0.000  1.003  0.000 -0.000
  0.000 -0.000  0.000  1.004  0.000
 -0.000 -0.000 -0.000  0.000  1.003
atomic mag. moment =    -4.740421
atom    5   Tr[ns(na)] (up, down, total) =   0.27445  5.01485  5.28931
   spin  1
    eigenvalues: 
  0.041  0.051  0.055  0.055  0.072
    eigenvectors:
  0.000  0.995  0.005  0.000  0.000
  0.000  0.003  0.497  0.500  0.000
  0.000  0.003  0.497  0.500  0.000
  1.000  0.000  0.000  0.000  0.000
  0.000  0.000  0.000  0.000  1.000
    occupations:
  0.051  0.000  0.000 -0.000 -0.000
  0.000  0.055 -0.000 -0.000 -0.000
  0.000 -0.000  0.055  0.000 -0.000
 -0.000 -0.000  0.000  0.041 -0.000
 -0.000 -0.000 -0.000 -0.000  0.072
   spin  2
    eigenvalues: 
  1.003  1.003  1.003  1.003  1.004
    eigenvectors:
  0.000  0.000  0.001  0.999  0.000
  0.000  0.500  0.499  0.000  0.000
  0.000  0.500  0.499  0.000  0.000
  0.000  0.000  0.000  0.000  1.000
  0.999  0.000  0.001  0.000  0.000
    occupations:
  1.003  0.000  0.000 -0.000 -0.000
  0.000  1.003  0.000  0.000  0.000
  0.000  0.000  1.003 -0.000  0.000
 -0.000  0.000 -0.000  1.004 -0.000
 -0.000  0.000  0.000 -0.000  1.003
atomic mag. moment =    -4.740404
atom    6   Tr[ns(na)] (up, down, total) =   5.01506  0.27364  5.28871
   spin  1
    eigenvalues: 
  1.003  1.003  1.003  1.003  1.004
    eigenvectors:
  0.000  0.000  0.004  0.996  0.000
  0.000  0.499  0.498  0.002  0.001
  0.000  0.499  0.498  0.002  0.001
  0.000  0.001  0.000  0.000  0.999
  0.999  0.000  0.001  0.000  0.000
    occupations:
  1.003 -0.000 -0.000 -0.000 -0.000
 -0.000  1.003  0.000  0.000  0.000
 -0.000  0.000  1.003 -0.000  0.000
 -0.000  0.000 -0.000  1.004 -0.000
 -0.000  0.000  0.000 -0.000  1.003
   spin  2
    eigenvalues: 
  0.041  0.051  0.054  0.055  0.072
    eigenvectors:
  0.000  0.998  0.002  0.000  0.000
  0.000  0.001  0.499  0.500  0.000
  0.000  0.001  0.499  0.500  0.000
  1.000  0.000  0.000  0.000  0.000
  0.000  0.000  0.000  0.000  1.000
    occupations:
  0.051  0.000  0.000 -0.000 -0.000
  0.000  0.055 -0.000 -0.000  0.000
  0.000 -0.000  0.055  0.000  0.000
 -0.000 -0.000  0.000  0.041 -0.000
 -0.000  0.000  0.000 -0.000  0.072
atomic mag. moment =     4.741419
atom    7   Tr[ns(na)] (up, down, total) =   5.01485  0.27445  5.28930
   spin  1
    eigenvalues: 
  1.003  1.003  1.003  1.003  1.004
    eigenvectors:
  0.000  0.000  0.000  0.997  0.002
  0.000  0.976  0.024  0.000  0.000
  0.000  0.024  0.976  0.000  0.000
  0.000  0.000  0.000  0.002  0.998
  0.999  0.000  0.000  0.000  0.000
    occupations:
  1.003  0.000  0.000 -0.000 -0.000
  0.000  1.003  0.000 -0.000 -0.000
  0.000  0.000  1.003  0.000 -0.000
 -0.000 -0.000  0.000  1.004 -0.000
 -0.000 -0.000 -0.000 -0.000  1.003
   spin  2
    eigenvalues: 
  0.041  0.051  0.054  0.055  0.072
    eigenvectors:
  0.000  0.992  0.007  0.000  0.000
  0.000  0.003  0.568  0.429  0.000
  0.000  0.004  0.425  0.571  0.000
  1.000  0.000  0.000  0.000  0.000
  0.000  0.000  0.000  0.000  1.000
    occupations:
  0.051  0.000  0.000 -0.000 -0.000
  0.000  0.055 -0.000 -0.000  0.000
  0.000 -0.000  0.055  0.000 -0.000
 -0.000 -0.000  0.000  0.041 -0.000
 -0.000  0.000 -0.000 -0.000  0.072
atomic mag. moment =     4.740407
atom    8   Tr[ns(na)] (up, down, total) =   0.27428  5.01470  5.28899
   spin  1
    eigenvalues: 
  0.041  0.051  0.054  0.055  0.072
    eigenvectors:
  0.000  0.990  0.009  0.000  0.000
  0.000  0.004  0.547  0.449  0.000
  0.000  0.005  0.444  0.551  0.000
  1.000  0.000  0.000  0.000  0.000
  0.000  0.000  0.000  0.000  1.000
    occupations:
  0.051  0.000  0.000  0.000 -0.000
  0.000  0.055 -0.000 -0.000  0.000
  0.000 -0.000  0.055  0.000  0.000
  0.000 -0.000  0.000  0.041 -0.000
 -0.000  0.000  0.000 -0.000  0.072
   spin  2
    eigenvalues: 
  1.003  1.003  1.003  1.003  1.004
    eigenvectors:
  0.001  0.000  0.000  0.999  0.000
  0.000  0.382  0.617  0.000  0.000
  0.000  0.617  0.382  0.000  0.000
  0.000  0.000  0.000  0.000  0.999
  0.999  0.000  0.000  0.001  0.000
    occupations:
  1.003 -0.000 -0.000 -0.000 -0.000
 -0.000  1.003  0.000 -0.000 -0.000
 -0.000  0.000  1.003  0.000 -0.000
 -0.000 -0.000  0.000  1.004 -0.000
 -0.000 -0.000 -0.000 -0.000  1.003
atomic mag. moment =    -4.740421
N of occupied +U levels =   42.312561
 --- exit write_ns ---

     total cpu time spent up to now is       94.1 secs

     total energy              =  -14679.20983928 Ry
     Harris-Foulkes estimate   =  -14669.80685414 Ry
     estimated scf accuracy    <      21.27253948 Ry

     total magnetization       =    -0.00 Bohr mag/cell
     absolute magnetization    =    43.59 Bohr mag/cell

     iteration #  2     ecut=    45.00 Ry     beta= 0.10
     Davidson diagonalization with overlap
     ethr =  7.19E-03,  avg # of iterations =  1.0

     total cpu time spent up to now is      129.6 secs

     total energy              =  -14692.15232293 Ry
     Harris-Foulkes estimate   =  -14679.31407387 Ry
     estimated scf accuracy    <      17.16445609 Ry

     total magnetization       =    -0.00 Bohr mag/cell
     absolute magnetization    =    43.15 Bohr mag/cell

     iteration #  3     ecut=    45.00 Ry     beta= 0.10
     Davidson diagonalization with overlap
     ethr =  5.80E-03,  avg # of iterations =  2.2

     total cpu time spent up to now is      172.6 secs

     total energy              =  -14693.82523485 Ry
     Harris-Foulkes estimate   =  -14693.75639766 Ry
     estimated scf accuracy    <       4.08275399 Ry

     total magnetization       =     0.00 Bohr mag/cell
     absolute magnetization    =    39.28 Bohr mag/cell

     iteration #  4     ecut=    45.00 Ry     beta= 0.10
     Davidson diagonalization with overlap
     ethr =  1.38E-03,  avg # of iterations =  5.7

     total cpu time spent up to now is      237.9 secs

     total energy              =  -14693.42926393 Ry
     Harris-Foulkes estimate   =  -14693.86580973 Ry
     estimated scf accuracy    <       4.38385885 Ry

     total magnetization       =     0.00 Bohr mag/cell
     absolute magnetization    =    39.06 Bohr mag/cell

     iteration #  5     ecut=    45.00 Ry     beta= 0.10
     Davidson diagonalization with overlap
     ethr =  1.38E-03,  avg # of iterations =  4.7

     total cpu time spent up to now is      302.7 secs

     total energy              =  -14693.86989534 Ry
     Harris-Foulkes estimate   =  -14693.82625327 Ry
     estimated scf accuracy    <       0.24948593 Ry

     total magnetization       =    -0.01 Bohr mag/cell
     absolute magnetization    =    38.17 Bohr mag/cell

     iteration #  6     ecut=    45.00 Ry     beta= 0.10
     Davidson diagonalization with overlap
     ethr =  8.43E-05,  avg # of iterations =  4.0

     total cpu time spent up to now is      381.5 secs

     total energy              =  -14693.98080141 Ry
     Harris-Foulkes estimate   =  -14693.94383524 Ry
     estimated scf accuracy    <       0.29974949 Ry

     total magnetization       =     0.00 Bohr mag/cell
     absolute magnetization    =    37.04 Bohr mag/cell

     iteration #  7     ecut=    45.00 Ry     beta= 0.10
     Davidson diagonalization with overlap
     ethr =  8.43E-05,  avg # of iterations =  2.1

     total cpu time spent up to now is      423.2 secs

     total energy              =  -14693.87424374 Ry
     Harris-Foulkes estimate   =  -14694.00600212 Ry
     estimated scf accuracy    <       0.90246239 Ry

     total magnetization       =    -0.00 Bohr mag/cell
     absolute magnetization    =    36.90 Bohr mag/cell

     iteration #  8     ecut=    45.00 Ry     beta= 0.10
     Davidson diagonalization with overlap
     ethr =  8.43E-05,  avg # of iterations =  2.3

     total cpu time spent up to now is      473.8 secs

     total energy              =  -14693.93458841 Ry
     Harris-Foulkes estimate   =  -14693.93921848 Ry
     estimated scf accuracy    <       0.06183533 Ry

     total magnetization       =     0.00 Bohr mag/cell
     absolute magnetization    =    36.94 Bohr mag/cell

     iteration #  9     ecut=    45.00 Ry     beta= 0.10
     Davidson diagonalization with overlap
     ethr =  2.09E-05,  avg # of iterations =  2.2

     total cpu time spent up to now is      515.3 secs

     total energy              =  -14693.93592803 Ry
     Harris-Foulkes estimate   =  -14693.93613041 Ry
     estimated scf accuracy    <       0.02703341 Ry

     total magnetization       =     0.00 Bohr mag/cell
     absolute magnetization    =    36.96 Bohr mag/cell

     iteration # 10     ecut=    45.00 Ry     beta= 0.10
     Davidson diagonalization with overlap
     ethr =  9.13E-06,  avg # of iterations =  2.9

     total cpu time spent up to now is      561.4 secs

     total energy              =  -14693.93856179 Ry
     Harris-Foulkes estimate   =  -14693.93745905 Ry
     estimated scf accuracy    <       0.00678910 Ry

     total magnetization       =    -0.00 Bohr mag/cell
     absolute magnetization    =    36.91 Bohr mag/cell

     iteration # 11     ecut=    45.00 Ry     beta= 0.10
     Davidson diagonalization with overlap
     ethr =  2.29E-06,  avg # of iterations =  4.2

     total cpu time spent up to now is      617.4 secs

     total energy              =  -14693.93941667 Ry
     Harris-Foulkes estimate   =  -14693.93907775 Ry
     estimated scf accuracy    <       0.00185657 Ry

     total magnetization       =    -0.00 Bohr mag/cell
     absolute magnetization    =    36.87 Bohr mag/cell

     iteration # 12     ecut=    45.00 Ry     beta= 0.10
     Davidson diagonalization with overlap
     ethr =  6.27E-07,  avg # of iterations =  3.1

     total cpu time spent up to now is      675.6 secs

     total energy              =  -14693.93993324 Ry
     Harris-Foulkes estimate   =  -14693.93987757 Ry
     estimated scf accuracy    <       0.00036439 Ry

     total magnetization       =    -0.00 Bohr mag/cell
     absolute magnetization    =    36.83 Bohr mag/cell

     iteration # 13     ecut=    45.00 Ry     beta= 0.10
     Davidson diagonalization with overlap
     ethr =  1.23E-07,  avg # of iterations =  2.2

     total cpu time spent up to now is      718.5 secs

     total energy              =  -14693.93999501 Ry
     Harris-Foulkes estimate   =  -14693.93997241 Ry
     estimated scf accuracy    <       0.00009522 Ry

     total magnetization       =     0.00 Bohr mag/cell
     absolute magnetization    =    36.81 Bohr mag/cell

     iteration # 14     ecut=    45.00 Ry     beta= 0.10
     Davidson diagonalization with overlap
     ethr =  3.22E-08,  avg # of iterations =  2.0

     total cpu time spent up to now is      759.1 secs

     total energy              =  -14693.94001250 Ry
     Harris-Foulkes estimate   =  -14693.94000269 Ry
     estimated scf accuracy    <       0.00002241 Ry

     total magnetization       =     0.00 Bohr mag/cell
     absolute magnetization    =    36.81 Bohr mag/cell

     iteration # 15     ecut=    45.00 Ry     beta= 0.10
     Davidson diagonalization with overlap
     ethr =  7.57E-09,  avg # of iterations =  3.4

     total cpu time spent up to now is      812.3 secs

     total energy              =  -14693.94002633 Ry
     Harris-Foulkes estimate   =  -14693.94001609 Ry
     estimated scf accuracy    <       0.00000674 Ry

     total magnetization       =    -0.00 Bohr mag/cell
     absolute magnetization    =    36.81 Bohr mag/cell

     iteration # 16     ecut=    45.00 Ry     beta= 0.10
     Davidson diagonalization with overlap
     ethr =  2.28E-09,  avg # of iterations =  2.7

     total cpu time spent up to now is      856.6 secs

     total energy              =  -14693.94003323 Ry
     Harris-Foulkes estimate   =  -14693.94002592 Ry
     estimated scf accuracy    <       0.00000423 Ry

     total magnetization       =     0.00 Bohr mag/cell
     absolute magnetization    =    36.81 Bohr mag/cell

     iteration # 17     ecut=    45.00 Ry     beta= 0.10
     Davidson diagonalization with overlap
     ethr =  1.43E-09,  avg # of iterations =  1.9

     total cpu time spent up to now is      896.2 secs

     total energy              =  -14693.94003974 Ry
     Harris-Foulkes estimate   =  -14693.94003398 Ry
     estimated scf accuracy    <       0.00000249 Ry

     total magnetization       =     0.00 Bohr mag/cell
     absolute magnetization    =    36.81 Bohr mag/cell

     iteration # 18     ecut=    45.00 Ry     beta= 0.10
     Davidson diagonalization with overlap
     ethr =  8.40E-10,  avg # of iterations =  2.4

     total cpu time spent up to now is      939.5 secs

     total energy              =  -14693.94004421 Ry
     Harris-Foulkes estimate   =  -14693.94004020 Ry
     estimated scf accuracy    <       0.00000119 Ry

     total magnetization       =    -0.00 Bohr mag/cell
     absolute magnetization    =    36.81 Bohr mag/cell

     iteration # 19     ecut=    45.00 Ry     beta= 0.10
     Davidson diagonalization with overlap
     ethr =  4.01E-10,  avg # of iterations =  2.5
 
     Magnetic moment per site:
     atom:    1    charge:   13.5430    magn:    4.2055    constr:    0.0000
     atom:    2    charge:   13.5431    magn:   -4.2084    constr:    0.0000
     atom:    3    charge:   13.5431    magn:    4.2069    constr:    0.0000
     atom:    4    charge:   13.5429    magn:   -4.2069    constr:    0.0000
     atom:    5    charge:   13.5432    magn:   -4.2055    constr:    0.0000
     atom:    6    charge:   13.5428    magn:    4.2084    constr:    0.0000
     atom:    7    charge:   13.5431    magn:    4.2069    constr:    0.0000
     atom:    8    charge:   13.5429    magn:   -4.2069    constr:    0.0000
     atom:    9    charge:    9.0903    magn:   -0.0265    constr:    0.0000
     atom:   10    charge:    9.0897    magn:    0.0254    constr:    0.0000
     atom:   11    charge:    9.0902    magn:    0.0263    constr:    0.0000
     atom:   12    charge:    9.0898    magn:   -0.0257    constr:    0.0000
     atom:   13    charge:    9.0901    magn:   -0.0259    constr:    0.0000
     atom:   14    charge:    9.0899    magn:    0.0261    constr:    0.0000
     atom:   15    charge:    9.0898    magn:   -0.0258    constr:    0.0000
     atom:   16    charge:    9.0902    magn:    0.0261    constr:    0.0000
     atom:   17    charge:    9.0899    magn:    0.0261    constr:    0.0000
     atom:   18    charge:    9.0901    magn:   -0.0259    constr:    0.0000
     atom:   19    charge:    9.0902    magn:    0.0263    constr:    0.0000
     atom:   20    charge:    9.0898    magn:   -0.0257    constr:    0.0000
     atom:   21    charge:    9.0903    magn:   -0.0265    constr:    0.0000
     atom:   22    charge:    9.0897    magn:    0.0254    constr:    0.0000
     atom:   23    charge:    9.0902    magn:    0.0261    constr:    0.0000
     atom:   24    charge:    9.0898    magn:   -0.0258    constr:    0.0000

     total cpu time spent up to now is      983.2 secs

     End of self-consistent calculation
 --- enter write_ns ---
 LDA+U parameters:
U(  1) =   3.1200   J(  1) =   0.7000   B(  1) =   0.0803
U(  2) =   3.1200   J(  2) =   0.7000   B(  2) =   0.0803
atom    1   Tr[ns(na)] (up, down, total) =   4.96518  0.76354  5.72872
   spin  1
    eigenvalues: 
  0.983  0.990  0.993  0.997  1.001
    eigenvectors:
  0.004  0.000  0.003  0.993  0.000
  0.001  0.500  0.497  0.001  0.000
  0.001  0.500  0.497  0.001  0.000
  0.000  0.000  0.000  0.000  1.000
  0.993  0.000  0.003  0.004  0.000
    occupations:
  0.997  0.000  0.000 -0.000  0.001
  0.000  0.992  0.001 -0.000 -0.000
  0.000  0.001  0.992  0.000 -0.000
 -0.000 -0.000  0.000  1.001 -0.000
  0.001 -0.000 -0.000 -0.000  0.983
   spin  2
    eigenvalues: 
  0.069  0.136  0.145  0.164  0.250
    eigenvectors:
  0.000  0.000  0.910  0.073  0.017
  0.000  0.500  0.036  0.463  0.000
  0.000  0.500  0.036  0.463  0.000
  1.000  0.000  0.000  0.000  0.000
  0.000  0.000  0.017  0.000  0.983
    occupations:
  0.148  0.003  0.003 -0.000 -0.013
  0.003  0.149  0.013 -0.000  0.001
  0.003  0.013  0.149  0.000  0.001
 -0.000 -0.000  0.000  0.069 -0.000
 -0.013  0.001  0.001 -0.000  0.249
atomic mag. moment =     4.201633
atom    2   Tr[ns(na)] (up, down, total) =   0.76190  4.96609  5.72799
   spin  1
    eigenvalues: 
  0.069  0.137  0.144  0.163  0.249
    eigenvectors:
  0.000  0.000  0.915  0.068  0.017
  0.000  0.500  0.034  0.466  0.000
  0.000  0.500  0.034  0.466  0.000
  1.000  0.000  0.000  0.000  0.000
  0.000  0.000  0.017  0.000  0.983
    occupations:
  0.147  0.003  0.003 -0.000 -0.013
  0.003  0.149  0.013 -0.001  0.001
  0.003  0.013  0.149  0.001  0.001
 -0.000 -0.001  0.001  0.069 -0.000
 -0.013  0.001  0.001 -0.000  0.247
   spin  2
    eigenvalues: 
  0.983  0.990  0.994  0.997  1.001
    eigenvectors:
  0.005  0.000  0.003  0.992  0.000
  0.003  0.500  0.495  0.002  0.000
  0.003  0.500  0.495  0.002  0.000
  0.000  0.000  0.000  0.000  1.000
  0.989  0.000  0.006  0.004  0.000
    occupations:
  0.997  0.000  0.000 -0.000  0.001
  0.000  0.992  0.002 -0.000 -0.001
  0.000  0.002  0.992  0.000 -0.001
 -0.000 -0.000  0.000  1.001 -0.000
  0.001 -0.001 -0.001 -0.000  0.983
atomic mag. moment =    -4.204185
atom    3   Tr[ns(na)] (up, down, total) =   4.96582  0.76270  5.72852
   spin  1
    eigenvalues: 
  0.983  0.990  0.994  0.997  1.001
    eigenvectors:
  0.005  0.000  0.002  0.992  0.000
  0.002  0.510  0.486  0.001  0.000
  0.003  0.490  0.506  0.002  0.000
  0.000  0.000  0.000  0.000  1.000
  0.990  0.000  0.005  0.005  0.000
    occupations:
  0.997  0.000  0.000  0.000  0.001
  0.000  0.992  0.002 -0.000 -0.000
  0.000  0.002  0.992  0.000 -0.001
  0.000 -0.000  0.000  1.001 -0.000
  0.001 -0.000 -0.001 -0.000  0.983
   spin  2
    eigenvalues: 
  0.069  0.136  0.145  0.163  0.249
    eigenvectors:
  0.000  0.001  0.911  0.070  0.017
  0.000  0.502  0.026  0.472  0.000
  0.000  0.496  0.046  0.458  0.000
  1.000  0.000  0.000  0.000  0.000
  0.000  0.000  0.017  0.000  0.983
    occupations:
  0.148  0.003  0.003 -0.000 -0.013
  0.003  0.149  0.013 -0.001  0.001
  0.003  0.013  0.149  0.000  0.001
 -0.000 -0.001  0.000  0.069  0.000
 -0.013  0.001  0.001  0.000  0.248
atomic mag. moment =     4.203120
atom    4   Tr[ns(na)] (up, down, total) =   0.76266  4.96545  5.72811
   spin  1
    eigenvalues: 
  0.069  0.136  0.145  0.163  0.250
    eigenvectors:
  0.000  0.001  0.911  0.071  0.017
  0.000  0.497  0.045  0.458  0.000
  0.000  0.501  0.027  0.471  0.000
  1.000  0.000  0.000  0.000  0.000
  0.000  0.000  0.017  0.000  0.983
    occupations:
  0.148  0.003  0.003  0.000 -0.013
  0.003  0.149  0.013 -0.000  0.001
  0.003  0.013  0.149  0.001  0.001
  0.000 -0.000  0.001  0.069 -0.000
 -0.013  0.001  0.001 -0.000  0.248
   spin  2
    eigenvalues: 
  0.983  0.990  0.993  0.997  1.001
    eigenvectors:
  0.004  0.000  0.004  0.992  0.000
  0.002  0.489  0.506  0.002  0.000
  0.002  0.510  0.486  0.002  0.000
  0.000  0.000  0.000  0.000  1.000
  0.992  0.000  0.004  0.003  0.000
    occupations:
  0.997  0.000  0.000 -0.000  0.001
  0.000  0.992  0.001 -0.000 -0.000
  0.000  0.001  0.992  0.000 -0.000
 -0.000 -0.000  0.000  1.001  0.000
  0.001 -0.000 -0.000  0.000  0.983
atomic mag. moment =    -4.202787
atom    5   Tr[ns(na)] (up, down, total) =   0.76361  4.96556  5.72917
   spin  1
    eigenvalues: 
  0.069  0.136  0.145  0.164  0.250
    eigenvectors:
  0.000  0.000  0.910  0.072  0.017
  0.000  0.500  0.036  0.464  0.000
  0.000  0.500  0.036  0.464  0.000
  1.000  0.000  0.000  0.000  0.000
  0.000  0.000  0.017  0.000  0.982
    occupations:
  0.148  0.003  0.003 -0.000 -0.014
  0.003  0.149  0.013 -0.000  0.001
  0.003  0.013  0.149  0.000  0.001
 -0.000 -0.000  0.000  0.069 -0.000
 -0.014  0.001  0.001 -0.000  0.248
   spin  2
    eigenvalues: 
  0.983  0.990  0.993  0.997  1.001
    eigenvectors:
  0.006  0.000  0.001  0.993  0.000
  0.002  0.500  0.497  0.001  0.000
  0.002  0.500  0.497  0.001  0.000
  0.000  0.000  0.000  0.000  1.000
  0.991  0.000  0.004  0.005  0.000
    occupations:
  0.997  0.000  0.000 -0.000  0.001
  0.000  0.992  0.002 -0.000 -0.000
  0.000  0.002  0.992  0.000 -0.000
 -0.000 -0.000  0.000  1.001 -0.000
  0.001 -0.000 -0.000 -0.000  0.983
atomic mag. moment =    -4.201952
atom    6   Tr[ns(na)] (up, down, total) =   4.96572  0.76175  5.72747
   spin  1
    eigenvalues: 
  0.983  0.990  0.994  0.997  1.001
    eigenvectors:
  0.003  0.000  0.005  0.991  0.000
  0.002  0.500  0.495  0.003  0.000
  0.002  0.500  0.495  0.003  0.000
  0.000  0.000  0.000  0.000  1.000
  0.992  0.000  0.005  0.003  0.000
    occupations:
  0.997  0.000  0.000 -0.000  0.001
  0.000  0.992  0.002 -0.000 -0.000
  0.000  0.002  0.992  0.000 -0.000
 -0.000 -0.000  0.000  1.001 -0.000
  0.001 -0.000 -0.000 -0.000  0.983
   spin  2
    eigenvalues: 
  0.069  0.136  0.144  0.163  0.249
    eigenvectors:
  0.000  0.000  0.914  0.069  0.017
  0.000  0.500  0.035  0.465  0.000
  0.000  0.500  0.035  0.465  0.000
  1.000  0.000  0.000  0.000  0.000
  0.000  0.000  0.016  0.000  0.983
    occupations:
  0.147  0.003  0.003 -0.000 -0.013
  0.003  0.149  0.013 -0.001  0.001
  0.003  0.013  0.149  0.001  0.001
 -0.000 -0.001  0.001  0.069 -0.000
 -0.013  0.001  0.001 -0.000  0.248
atomic mag. moment =     4.203970
atom    7   Tr[ns(na)] (up, down, total) =   4.96582  0.76270  5.72852
   spin  1
    eigenvalues: 
  0.983  0.990  0.994  0.997  1.001
    eigenvectors:
  0.005  0.000  0.002  0.992  0.000
  0.003  0.490  0.506  0.002  0.000
  0.002  0.510  0.486  0.001  0.000
  0.000  0.000  0.000  0.000  1.000
  0.990  0.000  0.005  0.005  0.000
    occupations:
  0.997  0.000  0.000 -0.000  0.001
  0.000  0.992  0.002 -0.000 -0.001
  0.000  0.002  0.992  0.000 -0.000
 -0.000 -0.000  0.000  1.001  0.000
  0.001 -0.001 -0.000  0.000  0.983
   spin  2
    eigenvalues: 
  0.069  0.136  0.145  0.163  0.249
    eigenvectors:
  0.000  0.001  0.911  0.070  0.017
  0.000  0.496  0.046  0.458  0.000
  0.000  0.502  0.026  0.472  0.000
  1.000  0.000  0.000  0.000  0.000
  0.000  0.000  0.017  0.000  0.983
    occupations:
  0.148  0.003  0.003  0.000 -0.013
  0.003  0.149  0.013 -0.000  0.001
  0.003  0.013  0.149  0.001  0.001
  0.000 -0.000  0.001  0.069 -0.000
 -0.013  0.001  0.001 -0.000  0.248
atomic mag. moment =     4.203120
atom    8   Tr[ns(na)] (up, down, total) =   0.76266  4.96545  5.72811
   spin  1
    eigenvalues: 
  0.069  0.136  0.145  0.163  0.250
    eigenvectors:
  0.000  0.001  0.911  0.071  0.017
  0.000  0.501  0.027  0.471  0.000
  0.000  0.497  0.045  0.458  0.000
  1.000  0.000  0.000  0.000  0.000
  0.000  0.000  0.017  0.000  0.983
    occupations:
  0.148  0.003  0.003 -0.000 -0.013
  0.003  0.149  0.013 -0.001  0.001
  0.003  0.013  0.149  0.000  0.001
 -0.000 -0.001  0.000  0.069  0.000
 -0.013  0.001  0.001  0.000  0.248
   spin  2
    eigenvalues: 
  0.983  0.990  0.993  0.997  1.001
    eigenvectors:
  0.004  0.000  0.004  0.992  0.000
  0.002  0.510  0.486  0.002  0.000
  0.002  0.489  0.506  0.002  0.000
  0.000  0.000  0.000  0.000  1.000
  0.992  0.000  0.004  0.003  0.000
    occupations:
  0.997  0.000  0.000  0.000  0.001
  0.000  0.992  0.001 -0.000 -0.000
  0.000  0.001  0.992  0.000 -0.000
  0.000 -0.000  0.000  1.001 -0.000
  0.001 -0.000 -0.000 -0.000  0.983
atomic mag. moment =    -4.202787
N of occupied +U levels =   45.826596
 --- exit write_ns ---

 ------ SPIN UP ------------


          k = 0.0000 0.0000 0.0000 ( 13629 PWs)   bands (ev):

   -66.3876 -66.3850 -66.3826 -66.3825 -61.8325 -61.8324 -61.8285 -61.8282
   -35.1569 -35.1545 -35.1512 -35.1494 -35.1438 -35.1413 -35.1386 -35.1386
   -35.0881 -35.0849 -35.0827 -35.0807 -30.6726 -30.6714 -30.6671 -30.6637
   -30.6562 -30.6557 -30.6546 -30.6527 -30.6520 -30.6508 -30.6479 -30.6461
     5.9656   7.5890   7.6395   8.1351   8.1355   8.4387   8.4921   8.4924
     8.7012   8.7019   9.1674   9.1679   9.3996   9.4483   9.4579   9.4890
     9.4899   9.5545   9.6037   9.6068   9.6075   9.6176   9.6418   9.6643
     9.6935   9.6941   9.8002   9.8556   9.8557   9.9427   9.9431   9.9575
     9.9861  10.0212  10.0722  10.0723  10.1255  10.1713  10.1713  10.2069
    10.2320  10.2608  10.2610  10.2613  10.3107  10.4529  10.4530  10.5123
    10.5138  10.5889  10.6456  10.6710  10.6718  10.7017  10.7761  10.7815
    10.9262  10.9464  11.0095  11.0106  11.0785  11.0927  11.1171  11.1176
    11.1233  11.3196  11.3277  11.3353  11.4805  11.5772  11.7003  11.7008
    11.8031  11.8144  11.8145  11.8181  11.8448  11.9274  11.9294  12.0201
    12.0562  12.0569  12.2033  12.2165  12.2634  12.3297  12.3298  12.3479
    12.3830  12.4330  12.4338  12.5043  12.5107  12.5483  12.5594  12.5858
    12.5859  12.6885  12.6886  12.7307  12.7310  12.8351  13.0980  13.0981
    13.1609  13.1620  13.2154  13.2708  13.2712  14.1394  14.8341  15.0584
    15.0601  15.1714  15.1728  15.5820  15.7715  16.7617  16.8649  16.8871
    16.9321  16.9327  16.9443  17.0316  17.1298  17.1322  17.4131  17.4137
    17.4495  17.5883  17.5901  17.8403  17.9750  18.0038  18.0048  18.1585
    18.4910  18.6752  19.3541  19.3550  19.4551  19.4556  19.4903  19.5583
    19.5635  19.7172

          k = 0.0000 0.0000-0.5441 ( 13704 PWs)   bands (ev):

   -66.3876 -66.3850 -66.3826 -66.3825 -61.8325 -61.8324 -61.8286 -61.8282
   -35.1569 -35.1545 -35.1512 -35.1494 -35.1438 -35.1413 -35.1387 -35.1386
   -35.0881 -35.0849 -35.0827 -35.0807 -30.6726 -30.6714 -30.6671 -30.6637
   -30.6562 -30.6557 -30.6546 -30.6527 -30.6521 -30.6508 -30.6479 -30.6460
     6.5552   7.6196   8.1248   8.1590   8.4487   8.4686   8.7309   8.7574
     8.8120   8.9268   8.9975   9.0017   9.0132   9.0629   9.1120   9.1451
     9.1558   9.1969   9.2424   9.4271   9.6203   9.6379   9.6483   9.6517
     9.6806   9.7089   9.7463   9.7563   9.7745   9.8331   9.8457   9.9122
     9.9312   9.9769   9.9908  10.0136  10.0244  10.0691  10.1156  10.1243
    10.2094  10.3394  10.3515  10.3799  10.3881  10.4253  10.4979  10.5042
    10.5832  10.5891  10.6236  10.6377  10.6900  10.7171  10.7558  10.8721
    10.9136  10.9728  11.0555  11.1468  11.2536  11.2864  11.2888  11.2974
    11.5793  11.5803  11.6650  11.6727  11.6777  11.7300  11.7408  11.7560
    11.8215  11.9191  11.9252  11.9279  11.9405  11.9514  11.9520  11.9576
    12.0452  12.0805  12.0854  12.1501  12.1841  12.1996  12.2482  12.2567
    12.2743  12.3501  12.3784  12.4135  12.5549  12.5732  12.6122  12.6518
    12.6599  12.6710  12.7874  12.8074  12.8145  12.8303  12.8359  12.9067
    12.9266  13.2278  13.3985  13.5733  14.0346  14.0454  14.0659  14.0809
    14.1323  14.3113  14.9492  15.3877  15.8284  15.8912  16.4150  16.8100
    16.9201  17.0657  17.0660  17.0953  17.1820  17.2886  17.3144  17.3544
    17.4090  17.6062  17.6416  17.6958  17.7510  17.7644  17.8729  17.9170
    18.0481  18.3829  18.5274  18.7332  19.2705  19.3455  19.4283  19.4458
    19.4480  19.5838

          k = 0.0000 0.0000 1.0883 ( 13706 PWs)   bands (ev):

   -66.3876 -66.3850 -66.3826 -66.3825 -61.8325 -61.8324 -61.8286 -61.8282
   -35.1569 -35.1545 -35.1512 -35.1494 -35.1438 -35.1414 -35.1388 -35.1386
   -35.0881 -35.0849 -35.0827 -35.0806 -30.6726 -30.6714 -30.6671 -30.6637
   -30.6563 -30.6558 -30.6546 -30.6528 -30.6521 -30.6508 -30.6478 -30.6460
     7.7840   8.1365   8.1370   8.3573   8.4902   8.4905   8.4949   8.6165
     8.7028   8.7037   8.7640   8.9650   9.0023   9.0248   9.1683   9.1683
     9.1996   9.2805   9.3268   9.4666   9.4887   9.4889   9.6052   9.6075
     9.6082   9.6907   9.6911   9.7565   9.7646   9.8567   9.8567   9.9084
     9.9341   9.9414   9.9419   9.9456   9.9878  10.0660  10.0737  10.0737
    10.1710  10.1711  10.2045  10.2238  10.2636  10.2638  10.2969  10.3326
    10.3625  10.3767  10.4482  10.4483  10.4800  10.6738  10.6746  10.8334
    10.9140  11.0084  11.0094  11.1161  11.1165  11.1842  11.2265  11.3351
    11.4200  11.4714  11.6005  11.7011  11.7017  11.8169  11.8170  11.8285
    11.8318  11.9274  11.9290  11.9435  12.0535  12.0546  12.1178  12.2589
    12.2995  12.3296  12.3296  12.3414  12.3471  12.4377  12.4397  12.4404
    12.4747  12.5108  12.5114  12.5710  12.5845  12.5847  12.6867  12.6868
    12.7282  12.7283  12.8425  12.8886  13.0982  13.0983  13.1045  13.1612
    13.1623  13.1911  13.2359  13.2699  13.2701  13.3561  13.5243  13.6583
    14.1477  15.0599  15.0621  15.1735  15.1752  15.2017  16.4359  16.9160
    16.9292  16.9298  16.9676  17.1320  17.1342  17.1840  17.3998  17.4100
    17.4107  17.4364  17.5585  17.5713  17.5728  17.6337  17.7594  18.0145
    18.0160  18.1550  18.1948  18.3266  18.6562  19.2634  19.3571  19.3581
    19.4580  19.4587

          k =-0.1768-0.1768-0.1360 ( 13673 PWs)   bands (ev):

   -66.3876 -66.3850 -66.3826 -66.3825 -61.8325 -61.8325 -61.8285 -61.8282
   -35.1569 -35.1547 -35.1509 -35.1496 -35.1438 -35.1413 -35.1386 -35.1386
   -35.0880 -35.0852 -35.0823 -35.0809 -30.6725 -30.6717 -30.6666 -30.6642
   -30.6561 -30.6557 -30.6542 -30.6528 -30.6520 -30.6512 -30.6476 -30.6462
     6.1278   7.3057   7.7285   7.7743   8.4727   8.4780   8.5423   8.6582
     8.6803   8.8340   9.2175   9.2445   9.2489   9.3094   9.3226   9.3880
     9.4490   9.4786   9.4819   9.5415   9.5521   9.6357   9.6402   9.6699
     9.6920   9.7123   9.7244   9.7837   9.8323   9.9274   9.9777  10.0225
    10.0570  10.0582  10.0753  10.0952  10.1028  10.1647  10.2242  10.2461
    10.2616  10.2929  10.3065  10.4075  10.4161  10.4637  10.5253  10.5313
    10.5729  10.5935  10.6616  10.6674  10.7224  10.7779  10.8186  10.8775
    10.9451  10.9676  10.9986  11.0064  11.0071  11.0273  11.0980  11.1391
    11.1643  11.2702  11.2910  11.4449  11.5845  11.5969  11.6225  11.6456
    11.7187  11.7223  11.7624  11.7719  11.7742  11.8869  11.9034  11.9467
    11.9677  12.0036  12.0288  12.0962  12.1036  12.2182  12.2209  12.2411
    12.2764  12.3335  12.3786  12.3880  12.4680  12.5240  12.5332  12.5725
    12.6826  12.7120  12.7479  12.7540  12.8113  12.8358  12.8534  12.9079
    13.0115  13.1320  13.3322  14.1563  14.2455  14.6775  14.7275  15.0199
    15.2449  15.3320  15.4919  15.5818  15.6913  16.4968  16.6172  16.6213
    16.6716  17.0105  17.0428  17.1924  17.2231  17.2648  17.3213  17.3661
    17.3793  17.5727  17.7354  17.7960  17.8218  17.9341  17.9900  18.1377
    18.3343  18.5957  18.8420  18.8871  18.9376  19.0554  19.1216  19.1254
    19.3716  20.0344

          k =-0.1768-0.1768-0.6802 ( 13666 PWs)   bands (ev):

   -66.3876 -66.3850 -66.3826 -66.3825 -61.8325 -61.8325 -61.8286 -61.8282
   -35.1569 -35.1547 -35.1509 -35.1496 -35.1438 -35.1413 -35.1387 -35.1386
   -35.0880 -35.0852 -35.0824 -35.0808 -30.6725 -30.6717 -30.6666 -30.6642
   -30.6562 -30.6558 -30.6542 -30.6528 -30.6521 -30.6512 -30.6475 -30.6462
     6.9755   7.0342   8.3308   8.3494   8.4173   8.4450   8.6336   8.8309
     8.8670   8.8873   8.9194   8.9731   9.0011   9.0028   9.0925   9.1431
     9.1806   9.3934   9.3963   9.4552   9.5385   9.5454   9.5608   9.6163
     9.6437   9.7348   9.7622   9.7942   9.7983   9.7993   9.8250   9.8702
     9.8822   9.8968   9.9471  10.0135  10.0335  10.0642  10.0710  10.1242
    10.3100  10.3365  10.4054  10.4078  10.4125  10.4642  10.5297  10.5810
    10.5998  10.6115  10.6488  10.6513  10.7253  10.8282  10.8411  10.8894
    10.9536  10.9663  11.0433  11.1262  11.1314  11.1755  11.2382  11.3214
    11.3563  11.4311  11.4407  11.5805  11.6124  11.6698  11.7027  11.7480
    11.7892  11.7977  11.8233  11.8463  11.8468  11.8791  11.9227  11.9445
    11.9809  12.0226  12.1266  12.1342  12.1702  12.2081  12.2226  12.2890
    12.2927  12.3169  12.3974  12.4065  12.4549  12.5237  12.5935  12.6046
    12.6190  12.6257  12.7669  12.8134  12.8333  12.8794  12.9028  12.9031
    12.9607  13.2379  13.7394  13.7421  13.8838  14.3989  14.4884  14.6482
    14.7104  14.8774  15.3054  15.4707  15.8011  16.1813  16.2210  16.3780
    16.4191  16.4573  17.0437  17.1200  17.1746  17.2707  17.3450  17.3558
    17.4482  17.4810  17.4931  17.6430  17.6614  17.7403  17.9645  18.0779
    18.0834  18.1448  18.3310  18.5216  18.5994  18.7263  19.1652  19.2389
    20.2311  20.5996

          k =-0.1768-0.1768 0.9522 ( 13713 PWs)   bands (ev):

   -66.3876 -66.3850 -66.3826 -66.3825 -61.8325 -61.8325 -61.8286 -61.8282
   -35.1569 -35.1547 -35.1509 -35.1496 -35.1438 -35.1414 -35.1387 -35.1386
   -35.0880 -35.0852 -35.0824 -35.0808 -30.6725 -30.6717 -30.6666 -30.6642
   -30.6562 -30.6558 -30.6542 -30.6529 -30.6521 -30.6512 -30.6475 -30.6462
     7.6687   7.7940   8.3875   8.4006   8.5403   8.5558   8.6257   8.6506
     8.6626   8.6983   8.7839   8.8487   8.8872   8.9610   9.1063   9.1396
     9.2008   9.2770   9.3008   9.3215   9.3714   9.3833   9.5391   9.5481
     9.5745   9.6452   9.6893   9.7156   9.7535   9.8315   9.8385   9.8442
     9.8846   9.9009   9.9060   9.9316  10.0251  10.0393  10.0882  10.0905
    10.1498  10.2242  10.3009  10.3193  10.3407  10.3978  10.4258  10.4498
    10.5354  10.5587  10.6197  10.7258  10.7483  10.7543  10.9224  10.9482
    10.9989  11.0314  11.0587  11.0967  11.1152  11.1433  11.3089  11.3992
    11.4873  11.5358  11.5712  11.6134  11.7434  11.8207  11.9079  11.9096
    11.9313  11.9429  11.9722  11.9783  12.0530  12.0536  12.1094  12.1713
    12.2481  12.2553  12.2637  12.2727  12.3161  12.3200  12.3897  12.3960
    12.4021  12.4064  12.4739  12.4907  12.6038  12.6433  12.6510  12.6726
    12.6822  12.7037  12.8884  12.9352  12.9396  12.9708  12.9751  13.0275
    13.0382  13.0939  13.1070  13.1896  13.5004  13.6846  13.7068  13.7319
    13.7997  14.0486  14.7624  14.8557  15.5466  15.8006  16.0848  16.2058
    16.4873  16.7889  17.0565  17.1405  17.2091  17.2909  17.3658  17.3844
    17.3864  17.5307  17.5403  17.5422  17.6175  17.7103  17.7384  17.8338
    17.9394  18.2723  18.2932  18.8083  19.0504  19.0648  19.2250  19.2492
    19.6558  19.7792

          k =-0.1768-0.1768 0.4081 ( 13683 PWs)   bands (ev):

   -66.3876 -66.3850 -66.3826 -66.3825 -61.8325 -61.8325 -61.8286 -61.8282
   -35.1569 -35.1547 -35.1509 -35.1496 -35.1438 -35.1413 -35.1387 -35.1386
   -35.0880 -35.0852 -35.0823 -35.0809 -30.6725 -30.6717 -30.6666 -30.6642
   -30.6561 -30.6558 -30.6542 -30.6528 -30.6520 -30.6512 -30.6475 -30.6462
     6.4226   7.9891   8.0271   8.1379   8.3188   8.4913   8.5258   8.7211
     8.7390   8.7752   8.9778   9.0587   9.0634   9.0867   9.1150   9.1884
     9.2122   9.2563   9.2953   9.3598   9.5045   9.5764   9.5926   9.6218
     9.6284   9.7556   9.7612   9.7730   9.7806   9.8106   9.8543   9.9018
     9.9069   9.9288  10.0078  10.0527  10.0937  10.1071  10.1789  10.2218
    10.2272  10.2479  10.3084  10.3402  10.3492  10.4611  10.5457  10.5463
    10.5780  10.5877  10.7489  10.8242  10.8251  10.8687  10.9002  10.9236
    10.9629  10.9912  11.0730  11.1930  11.2810  11.2918  11.3576  11.4499
    11.4570  11.5134  11.6070  11.6190  11.6241  11.7559  11.7653  11.8229
    11.8232  11.8882  11.9588  11.9602  11.9784  12.0160  12.0360  12.0755
    12.1067  12.1704  12.1770  12.1867  12.1981  12.2277  12.2732  12.2936
    12.3038  12.3506  12.4049  12.4799  12.4850  12.5302  12.5694  12.5811
    12.6194  12.6602  12.7039  12.7980  12.7988  12.8031  12.8632  12.8887
    12.9079  13.0401  13.2355  13.2561  13.3661  13.4602  13.8958  13.9829
    14.3786  14.5802  15.1882  15.3286  15.8854  16.0431  16.2011  16.6169
    16.8403  16.9293  16.9580  17.1140  17.2615  17.2657  17.3043  17.4298
    17.5582  17.5604  17.6168  17.6336  17.7054  17.8758  17.9629  17.9649
    18.1468  18.5745  18.6159  18.7562  18.9202  19.1497  19.1775  19.4676
    19.9790  20.2510

          k = 0.3536 0.3536 0.2721 ( 13708 PWs)   bands (ev):

   -66.3876 -66.3850 -66.3825 -66.3825 -61.8325 -61.8325 -61.8285 -61.8282
   -35.1568 -35.1549 -35.1504 -35.1500 -35.1438 -35.1413 -35.1386 -35.1386
   -35.0879 -35.0854 -35.0819 -35.0811 -30.6721 -30.6721 -30.6655 -30.6653
   -30.6559 -30.6559 -30.6534 -30.6533 -30.6520 -30.6517 -30.6472 -30.6465
     6.5949   6.5952   8.0928   8.0933   8.1243   8.1245   8.7770   8.7772
     8.9340   8.9341   8.9697   8.9698   9.3158   9.3162   9.3835   9.3835
     9.4322   9.4323   9.4834   9.4837   9.5695   9.5696   9.5755   9.5755
     9.6504   9.6507   9.7268   9.7272   9.9097   9.9098   9.9140   9.9144
    10.0621  10.0624  10.1028  10.1031  10.2087  10.2090  10.3165  10.3171
    10.3288  10.3289  10.3883  10.3886  10.4699  10.4700  10.5198  10.5199
    10.6068  10.6077  10.6889  10.6895  10.8645  10.8651  10.8819  10.8821
    10.9350  10.9350  11.0389  11.0389  11.0678  11.0679  11.2067  11.2069
    11.3235  11.3243  11.3273  11.3284  11.4604  11.4610  11.4883  11.4886
    11.6115  11.6116  11.7461  11.7464  11.7530  11.7531  11.8608  11.8608
    11.8745  11.8751  12.0020  12.0022  12.0495  12.0497  12.2276  12.2280
    12.2782  12.2784  12.3460  12.3464  12.4855  12.4855  12.6022  12.6022
    12.6120  12.6122  12.6443  12.6448  12.8240  12.8242  12.9049  12.9054
    13.0667  13.0669  14.0984  14.0991  15.0161  15.0169  15.0718  15.0720
    15.6042  15.6054  15.6267  15.6274  15.9889  15.9890  16.1920  16.1926
    16.6255  16.6259  17.1244  17.1251  17.2720  17.2726  17.4183  17.4187
    17.5553  17.5572  17.6677  17.6688  17.8632  17.8636  17.9265  17.9284
    18.1919  18.1941  18.4552  18.4558  18.4837  18.4842  19.0762  19.0769
    20.1626  20.1656

          k = 0.3536 0.3536-0.2721 ( 13700 PWs)   bands (ev):

   -66.3876 -66.3850 -66.3825 -66.3825 -61.8325 -61.8325 -61.8286 -61.8282
   -35.1568 -35.1549 -35.1504 -35.1500 -35.1438 -35.1413 -35.1387 -35.1386
   -35.0879 -35.0854 -35.0819 -35.0811 -30.6722 -30.6721 -30.6655 -30.6653
   -30.6560 -30.6559 -30.6534 -30.6534 -30.6520 -30.6516 -30.6471 -30.6464
     6.5953   7.6136   8.0931   8.1248   8.4423   8.6197   8.6240   8.7192
     8.7442   8.7763   8.9278   8.9338   8.9711   9.0648   9.1420   9.2643
     9.3159   9.3755   9.3835   9.4326   9.4775   9.4845   9.5247   9.5705
     9.5756   9.6494   9.6939   9.7250   9.7999   9.8140   9.9077   9.9132
     9.9169   9.9274  10.0079  10.0167  10.0627  10.1031  10.2091  10.2563
    10.3180  10.3303  10.3792  10.3910  10.4361  10.4708  10.5114  10.5192
    10.6034  10.6335  10.6908  10.8370  10.8654  10.8814  10.9342  10.9667
    10.9908  11.0370  11.0565  11.0661  11.1379  11.2082  11.3250  11.3276
    11.3706  11.4615  11.4886  11.5515  11.6116  11.6761  11.7460  11.7533
    11.7628  11.8416  11.8603  11.8612  11.8751  11.9636  11.9981  12.0012
    12.0509  12.0674  12.0715  12.1024  12.1540  12.2281  12.2662  12.2749
    12.2777  12.2894  12.3456  12.3726  12.3998  12.4855  12.6014  12.6134
    12.6423  12.6545  12.7109  12.7671  12.7857  12.8235  12.9076  12.9663
    13.0571  13.0675  13.2485  13.4125  13.8582  13.8894  14.0996  14.9748
    15.0178  15.0220  15.0778  15.6058  15.6293  15.9418  15.9844  16.1889
    16.6182  16.6190  17.0716  17.1181  17.2661  17.2717  17.3698  17.4259
    17.4843  17.5493  17.5860  17.6594  17.6672  17.7635  17.8628  17.9358
    18.0500  18.1984  18.4604  18.4911  18.6261  19.0764  19.1396  19.9192
    19.9681  20.1277

          k = 0.3536 0.3536 1.3603 ( 13692 PWs)   bands (ev):

   -66.3876 -66.3850 -66.3825 -66.3825 -61.8325 -61.8325 -61.8286 -61.8282
   -35.1568 -35.1549 -35.1504 -35.1500 -35.1438 -35.1414 -35.1387 -35.1387
   -35.0879 -35.0854 -35.0819 -35.0811 -30.6722 -30.6721 -30.6655 -30.6653
   -30.6560 -30.6560 -30.6535 -30.6534 -30.6519 -30.6516 -30.6471 -30.6464
     7.6147   7.6147   8.4419   8.4427   8.6203   8.6210   8.6256   8.6256
     8.7172   8.7173   8.7424   8.7424   8.9281   8.9286   9.0644   9.0647
     9.1408   9.1411   9.2653   9.2657   9.3739   9.3741   9.4775   9.4776
     9.5263   9.5263   9.6931   9.6937   9.7987   9.7989   9.8104   9.8109
     9.9171   9.9172   9.9283   9.9287  10.0080  10.0081  10.0179  10.0183
    10.2569  10.2572  10.3811  10.3816  10.4379  10.4382  10.5100  10.5100
    10.6332  10.6337  10.8360  10.8360  10.9664  10.9667  10.9912  10.9913
    11.0576  11.0576  11.1382  11.1386  11.3707  11.3708  11.5526  11.5527
    11.6767  11.6770  11.7602  11.7604  11.8402  11.8403  11.8600  11.8605
    11.9630  11.9631  11.9967  11.9970  12.0652  12.0654  12.0710  12.0713
    12.1012  12.1014  12.1546  12.1548  12.2662  12.2662  12.2746  12.2751
    12.2909  12.2909  12.3734  12.3739  12.3996  12.3997  12.6534  12.6536
    12.7118  12.7118  12.7667  12.7669  12.7877  12.7885  12.9651  12.9651
    13.0566  13.0569  13.2489  13.2494  13.4134  13.4137  13.8583  13.8586
    13.8894  13.8900  14.9751  14.9753  15.0213  15.0220  15.9454  15.9468
    16.6200  16.6204  17.0779  17.0797  17.2787  17.2797  17.3540  17.3554
    17.4796  17.4799  17.5754  17.5776  17.6632  17.6635  17.7624  17.7640
    18.0484  18.0493  18.6298  18.6301  19.1438  19.1443  19.9197  19.9204
    19.9691  19.9696

          k = 0.1768-0.1768 0.0000 ( 13644 PWs)   bands (ev):

   -66.3876 -66.3850 -66.3826 -66.3825 -61.8325 -61.8324 -61.8285 -61.8282
   -35.1569 -35.1545 -35.1512 -35.1494 -35.1438 -35.1413 -35.1386 -35.1386
   -35.0881 -35.0849 -35.0827 -35.0807 -30.6726 -30.6714 -30.6671 -30.6637
   -30.6562 -30.6557 -30.6546 -30.6527 -30.6520 -30.6508 -30.6479 -30.6461
     6.0886   7.0062   8.0449   8.1941   8.1946   8.4784   8.5300   8.5302
     8.6270   8.6274   9.1151   9.1154   9.2383   9.4197   9.4775   9.4972
     9.4981   9.5740   9.5740   9.5807   9.6161   9.6284   9.6290   9.6477
     9.6941   9.7507   9.8060   9.8403   9.8406   9.8467   9.9533   9.9535
    10.0322  10.0388  10.0389  10.1245  10.1319  10.1378  10.1384  10.2147
    10.2340  10.2949  10.2951  10.3051  10.3937  10.5048  10.5510  10.5514
    10.5708  10.5807  10.6085  10.6664  10.7053  10.7058  10.7862  10.8163
    10.9190  11.0511  11.0514  11.0603  11.0812  11.1198  11.1261  11.2093
    11.3116  11.3119  11.3320  11.3985  11.4889  11.5178  11.6910  11.6915
    11.7187  11.7290  11.7891  11.7894  11.8979  11.9307  11.9321  11.9843
    11.9848  12.0483  12.1723  12.2167  12.2576  12.2739  12.2740  12.3007
    12.3483  12.3485  12.3880  12.4032  12.4770  12.4774  12.5752  12.6352
    12.6857  12.6859  12.7368  12.7496  12.7498  12.8406  12.8757  12.8761
    13.1323  13.1336  13.1522  13.3152  13.7718  13.7722  14.9178  14.9192
    15.2113  15.4589  15.4602  15.5769  15.8237  16.6641  16.6646  16.7324
    16.8424  16.9535  16.9928  17.0432  17.0678  17.0698  17.3975  17.3984
    17.4586  17.5326  17.5348  17.9428  17.9719  17.9731  18.0399  18.2203
    18.4531  18.4674  18.4675  18.8868  18.8914  19.2922  19.6617  19.6637
    19.7599  20.0360

          k = 0.1768-0.1768-0.5441 ( 13695 PWs)   bands (ev):

   -66.3876 -66.3850 -66.3826 -66.3825 -61.8325 -61.8324 -61.8286 -61.8282
   -35.1569 -35.1545 -35.1512 -35.1494 -35.1438 -35.1413 -35.1387 -35.1386
   -35.0881 -35.0849 -35.0827 -35.0807 -30.6726 -30.6714 -30.6671 -30.6637
   -30.6562 -30.6557 -30.6546 -30.6527 -30.6521 -30.6508 -30.6479 -30.6460
     6.6700   7.5375   7.7201   8.3320   8.5005   8.5628   8.7274   8.8036
     8.8260   8.8410   8.9723   9.0385   9.0509   9.0577   9.1532   9.1772
     9.1953   9.2321   9.2531   9.3500   9.4931   9.5502   9.5526   9.5650
     9.6058   9.6073   9.6674   9.7357   9.7676   9.7982   9.8514   9.8720
     9.9010   9.9378  10.0217  10.0246  10.1496  10.1740  10.2386  10.2722
    10.2872  10.2945  10.3223  10.3794  10.4985  10.5065  10.5599  10.6371
    10.6532  10.6755  10.6953  10.7167  10.7643  10.7988  10.8448  10.9383
    10.9892  11.0312  11.0793  11.1860  11.1883  11.2397  11.2400  11.3158
    11.4367  11.5565  11.5743  11.5751  11.5999  11.6404  11.6663  11.7413
    11.8199  11.8290  11.8624  11.8911  11.9015  11.9802  12.0141  12.0154
    12.0180  12.0503  12.1080  12.1530  12.1579  12.2009  12.2103  12.2629
    12.2845  12.3109  12.3242  12.4816  12.4964  12.5130  12.5699  12.5757
    12.6013  12.6634  12.6807  12.7460  12.8102  12.8249  12.8364  13.0623
    13.1849  13.2337  13.2699  13.5326  13.6763  13.7599  14.0306  14.2141
    14.6404  14.9587  15.0185  15.5513  15.5591  16.0311  16.1419  16.4523
    16.7007  16.7240  17.0908  17.2852  17.3147  17.3236  17.3318  17.3495
    17.3771  17.5491  17.6102  17.6335  17.7606  17.7701  17.8584  18.0121
    18.2638  18.3053  18.5341  18.7696  19.0259  19.1136  19.2427  19.3381
    19.8064  20.0652

          k = 0.1768-0.1768 1.0883 ( 13696 PWs)   bands (ev):

   -66.3876 -66.3850 -66.3826 -66.3825 -61.8325 -61.8324 -61.8286 -61.8282
   -35.1569 -35.1545 -35.1512 -35.1494 -35.1438 -35.1414 -35.1388 -35.1386
   -35.0881 -35.0849 -35.0827 -35.0806 -30.6726 -30.6714 -30.6671 -30.6637
   -30.6563 -30.6558 -30.6546 -30.6528 -30.6521 -30.6508 -30.6478 -30.6460
     7.8643   8.1957   8.1962   8.4223   8.4800   8.5120   8.5284   8.5287
     8.6278   8.6284   8.6379   8.8107   8.8749   9.0879   9.1156   9.1157
     9.2744   9.4600   9.4968   9.4974   9.4978   9.5315   9.5354   9.5737
     9.5738   9.6292   9.6298   9.6419   9.6584   9.7967   9.8386   9.8388
     9.9532   9.9534   9.9764  10.0018  10.0383  10.0386  10.0773  10.1376
    10.1384  10.1684  10.2051  10.2099  10.2216  10.2968  10.2970  10.3056
    10.4828  10.5395  10.5487  10.5490  10.5968  10.6809  10.7068  10.7072
    10.8216  10.9888  11.0497  11.0500  11.2579  11.3113  11.3117  11.4467
    11.5546  11.5796  11.6320  11.6916  11.6920  11.7902  11.7916  11.7918
    11.8474  11.8977  11.9310  11.9320  11.9821  11.9830  12.0508  12.1321
    12.2741  12.2742  12.2891  12.3168  12.3508  12.3509  12.3688  12.3803
    12.4721  12.4756  12.4761  12.4880  12.5207  12.5869  12.6390  12.6873
    12.6874  12.7482  12.7484  12.8047  12.8743  12.8746  12.9464  13.0708
    13.1327  13.1340  13.2346  13.3571  13.7721  13.7724  13.8185  13.8820
    14.5629  14.9202  14.9220  15.3782  15.4591  15.4606  15.9694  16.3304
    16.6665  16.6669  17.0271  17.0645  17.0664  17.3461  17.3941  17.3952
    17.3976  17.4272  17.5102  17.5120  17.5580  17.6332  17.7800  17.9846
    17.9863  18.1168  18.2711  18.3215  18.4771  18.4772  18.7966  19.0867
    19.2700  19.6721

          k = 0.0000-0.3536-0.1360 ( 13676 PWs)   bands (ev):

   -66.3876 -66.3850 -66.3826 -66.3825 -61.8325 -61.8324 -61.8285 -61.8282
   -35.1569 -35.1547 -35.1509 -35.1496 -35.1438 -35.1413 -35.1386 -35.1386
   -35.0880 -35.0852 -35.0823 -35.0809 -30.6725 -30.6717 -30.6666 -30.6642
   -30.6561 -30.6557 -30.6542 -30.6528 -30.6520 -30.6512 -30.6476 -30.6462
     6.2493   7.1529   7.4049   8.0984   8.1751   8.5838   8.6277   8.6866
     8.8131   8.8632   9.1693   9.1795   9.2403   9.2982   9.3172   9.4005
     9.4076   9.4395   9.4760   9.4877   9.5451   9.5500   9.6150   9.6415
     9.6805   9.7323   9.7903   9.8400   9.9054   9.9181   9.9519   9.9644
     9.9925  10.0619  10.0825  10.0916  10.1488  10.1806  10.2263  10.2965
    10.3030  10.3270  10.3525  10.4462  10.4515  10.4673  10.5274  10.5742
    10.6048  10.6460  10.6470  10.7367  10.7512  10.8085  10.8354  10.8968
    10.9385  10.9499  10.9629  11.0196  11.1049  11.1123  11.1861  11.1919
    11.2452  11.2759  11.2821  11.4021  11.5034  11.5613  11.6249  11.6535
    11.6795  11.6857  11.7291  11.7836  11.7856  11.8637  11.8807  11.8882
    11.9324  11.9347  12.0641  12.0747  12.1346  12.1638  12.1815  12.2636
    12.2987  12.3227  12.3251  12.3428  12.3884  12.4749  12.4806  12.5867
    12.6714  12.6899  12.7627  12.8262  12.8407  12.8416  12.9009  12.9983
    13.0347  13.3038  13.3492  13.8299  13.8919  14.4968  14.8100  15.0751
    15.3736  15.4266  15.4885  15.7632  15.8434  16.1153  16.4192  16.6424
    16.7443  16.9415  17.0374  17.1532  17.2003  17.2807  17.3704  17.4020
    17.4182  17.5734  17.6505  17.7835  17.8559  17.9278  17.9293  18.1594
    18.3647  18.3996  18.5560  18.6081  19.0045  19.0841  19.3557  19.5861
    19.7057  20.1924

          k = 0.0000-0.3536-0.6802 ( 13702 PWs)   bands (ev):

   -66.3876 -66.3850 -66.3826 -66.3825 -61.8325 -61.8324 -61.8286 -61.8282
   -35.1569 -35.1547 -35.1509 -35.1496 -35.1438 -35.1413 -35.1387 -35.1386
   -35.0880 -35.0852 -35.0824 -35.0808 -30.6725 -30.6717 -30.6666 -30.6642
   -30.6562 -30.6558 -30.6542 -30.6528 -30.6521 -30.6512 -30.6475 -30.6462
     7.0801   7.1446   7.8717   7.9174   8.5767   8.6680   8.8627   8.8696
     8.9086   8.9242   8.9657   8.9798   9.0153   9.0459   9.1107   9.1695
     9.1761   9.2942   9.3494   9.3928   9.4137   9.4686   9.4976   9.5704
     9.5730   9.6397   9.6440   9.6992   9.7350   9.7738   9.7791   9.9209
     9.9445   9.9790  10.0142  10.0794  10.1067  10.1959  10.2481  10.2863
    10.3189  10.3421  10.3452  10.4196  10.4846  10.5087  10.5432  10.5519
    10.6359  10.6826  10.7301  10.7306  10.8235  10.8432  10.8527  10.8950
    10.9727  11.0110  11.0517  11.1189  11.1285  11.2104  11.2565  11.2863
    11.3172  11.4296  11.4461  11.4896  11.5474  11.5709  11.6539  11.6632
    11.6987  11.7419  11.8149  11.8286  11.8595  11.8840  11.9307  11.9728
    12.0548  12.0651  12.0878  12.1236  12.1696  12.1795  12.1835  12.2555
    12.2776  12.3443  12.3573  12.3742  12.4473  12.5131  12.5848  12.5984
    12.6232  12.6509  12.7614  12.7753  12.8349  12.8819  12.9001  13.0274
    13.1296  13.3492  13.6851  13.6870  13.9187  14.2106  14.2397  14.4549
    14.8503  15.0733  15.3719  15.5197  15.6346  15.9445  15.9967  16.1698
    16.4199  16.8940  16.9126  17.1919  17.2248  17.3465  17.3737  17.4004
    17.4523  17.5091  17.6147  17.6529  17.7007  17.7239  17.9362  18.0492
    18.0619  18.1723  18.2760  18.5302  18.6899  19.1320  19.4277  19.5900
    19.9326  20.1767

          k = 0.0000-0.3536 0.9522 ( 13693 PWs)   bands (ev):

   -66.3876 -66.3850 -66.3826 -66.3825 -61.8325 -61.8324 -61.8286 -61.8282
   -35.1569 -35.1547 -35.1509 -35.1496 -35.1438 -35.1414 -35.1387 -35.1386
   -35.0880 -35.0852 -35.0824 -35.0808 -30.6725 -30.6717 -30.6666 -30.6642
   -30.6562 -30.6558 -30.6542 -30.6529 -30.6521 -30.6512 -30.6475 -30.6462
     7.7484   7.8611   8.3434   8.3500   8.4557   8.4868   8.5607   8.6239
     8.6480   8.7132   8.8249   8.8513   8.8825   9.0779   9.0838   9.1610
     9.2539   9.3048   9.3239   9.3261   9.3623   9.4119   9.4839   9.5512
     9.5732   9.5878   9.5960   9.6706   9.6899   9.7605   9.7881   9.7915
     9.8510   9.8726   9.9511  10.0018  10.0185  10.0351  10.0679  10.1807
    10.2066  10.2165  10.2502  10.2643  10.4075  10.4292  10.4860  10.5068
    10.5865  10.6131  10.6524  10.7451  10.8043  10.8125  10.8227  10.9545
    10.9683  11.0332  11.0937  11.2022  11.2570  11.3063  11.3234  11.3630
    11.5464  11.5687  11.5869  11.7109  11.7142  11.7873  11.8138  11.8698
    11.9100  11.9566  11.9732  12.0007  12.0108  12.0433  12.0622  12.0636
    12.1782  12.1990  12.2298  12.2602  12.2733  12.3119  12.3172  12.3571
    12.3788  12.3961  12.4414  12.4634  12.5072  12.5298  12.5458  12.5829
    12.6677  12.7351  12.7868  12.8162  12.9588  12.9733  13.0112  13.0186
    13.0345  13.1129  13.1598  13.3863  13.5916  13.6422  13.7638  13.8700
    14.0941  14.2341  14.9035  15.1745  15.5572  15.7067  15.9498  16.0320
    16.5532  16.7073  16.8385  17.1448  17.2380  17.2422  17.3566  17.3761
    17.3951  17.5133  17.5145  17.5386  17.5985  17.6126  17.7583  17.8762
    17.9270  18.2151  18.3747  18.4265  18.5303  18.6068  18.6599  19.2737
    19.5125  20.0485

          k = 0.0000-0.3536 0.4081 ( 13687 PWs)   bands (ev):

   -66.3876 -66.3850 -66.3826 -66.3825 -61.8325 -61.8324 -61.8286 -61.8282
   -35.1569 -35.1547 -35.1509 -35.1496 -35.1438 -35.1413 -35.1387 -35.1386
   -35.0880 -35.0852 -35.0823 -35.0809 -30.6725 -30.6717 -30.6666 -30.6642
   -30.6561 -30.6558 -30.6542 -30.6528 -30.6520 -30.6512 -30.6475 -30.6462
     6.5396   7.4146   8.2227   8.3246   8.4302   8.4716   8.5654   8.5954
     8.7668   8.7931   9.0134   9.0800   9.0871   9.1401   9.1532   9.1771
     9.2080   9.2146   9.3296   9.3539   9.4879   9.5216   9.5383   9.5823
     9.6101   9.6287   9.6651   9.6974   9.7291   9.7980   9.8057   9.8734
     9.9564   9.9895  10.0032  10.0158  10.0833  10.1098  10.1924  10.2153
    10.2177  10.3348  10.3991  10.4032  10.4636  10.4967  10.6143  10.6972
    10.7006  10.7449  10.7640  10.8046  10.8619  10.8750  10.8832  10.9625
    11.0030  11.0581  11.1585  11.1679  11.2135  11.2742  11.3653  11.3848
    11.4501  11.4560  11.5745  11.6381  11.6722  11.6838  11.7197  11.7253
    11.8365  11.9040  11.9107  11.9448  11.9773  11.9931  12.0371  12.0555
    12.1123  12.1162  12.1245  12.1777  12.1830  12.2710  12.2749  12.3038
    12.3042  12.3301  12.3673  12.3794  12.4489  12.5213  12.5707  12.6001
    12.6086  12.6411  12.7161  12.7422  12.7709  12.7950  12.8506  12.8561
    12.8907  12.9263  13.0232  13.0674  13.0751  14.1718  14.2094  14.3541
    14.5365  14.7829  14.8504  15.4041  15.7763  16.0604  16.1262  16.5762
    16.6474  16.6628  17.0504  17.1378  17.2066  17.2151  17.3651  17.3760
    17.4699  17.4996  17.5349  17.6216  17.7055  17.8674  17.8977  17.9458
    18.2901  18.3215  18.5717  18.6450  19.0263  19.0643  19.1142  19.4873
    20.0498  20.2661

          k = 0.5303 0.1768 0.2721 ( 13658 PWs)   bands (ev):

   -66.3876 -66.3850 -66.3825 -66.3825 -61.8325 -61.8325 -61.8285 -61.8282
   -35.1568 -35.1549 -35.1504 -35.1500 -35.1438 -35.1413 -35.1386 -35.1386
   -35.0879 -35.0854 -35.0819 -35.0811 -30.6721 -30.6721 -30.6655 -30.6653
   -30.6559 -30.6559 -30.6534 -30.6533 -30.6520 -30.6517 -30.6472 -30.6465
     6.7102   6.7106   7.5572   7.5574   8.4975   8.4980   8.8274   8.8274
     8.9609   8.9610   9.0070   9.0070   9.2854   9.2859   9.3241   9.3242
     9.3990   9.3991   9.4637   9.4638   9.4762   9.4766   9.5834   9.5835
     9.6590   9.6592   9.7678   9.7680   9.8404   9.8404   9.9634   9.9634
    10.0129  10.0130  10.2232  10.2232  10.2434  10.2436  10.3035  10.3036
    10.3279  10.3281  10.4158  10.4159  10.5103  10.5109  10.5720  10.5723
    10.6728  10.6736  10.7603  10.7605  10.8303  10.8303  10.8779  10.8780
    10.9059  10.9063  11.0829  11.0830  11.1440  11.1441  11.2027  11.2027
    11.3135  11.3140  11.3235  11.3241  11.3706  11.3716  11.4763  11.4766
    11.5811  11.5812  11.6195  11.6198  11.8105  11.8110  11.8644  11.8645
    11.9280  11.9282  11.9586  11.9589  12.0642  12.0646  12.1701  12.1704
    12.2935  12.2938  12.3191  12.3192  12.4799  12.4800  12.6071  12.6073
    12.6382  12.6386  12.7557  12.7559  12.8753  12.8754  12.9509  12.9515
    13.0324  13.0328  14.0862  14.0870  14.5680  14.5683  15.0487  15.0490
    15.3938  15.3946  15.5570  15.5580  16.0382  16.0389  16.3168  16.3174
    16.7407  16.7411  17.0548  17.0555  17.3275  17.3285  17.4305  17.4312
    17.6147  17.6163  17.6807  17.6822  17.8178  17.8185  17.9733  17.9749
    18.2113  18.2129  18.4804  18.4809  18.5862  18.5868  19.8811  19.8816
    20.2019  20.2020

          k = 0.5303 0.1768-0.2721 ( 13683 PWs)   bands (ev):

   -66.3876 -66.3850 -66.3825 -66.3825 -61.8325 -61.8325 -61.8286 -61.8282
   -35.1568 -35.1549 -35.1504 -35.1500 -35.1438 -35.1413 -35.1387 -35.1386
   -35.0879 -35.0854 -35.0819 -35.0811 -30.6722 -30.6721 -30.6655 -30.6653
   -30.6560 -30.6559 -30.6534 -30.6534 -30.6520 -30.6516 -30.6471 -30.6464
     6.7107   7.5576   7.6880   8.2549   8.4972   8.5153   8.6480   8.7746
     8.8274   8.8806   8.9605   9.0077   9.0234   9.0541   9.1635   9.2395
     9.2860   9.3141   9.3244   9.3992   9.4638   9.4768   9.4777   9.5242
     9.5840   9.6537   9.6581   9.6916   9.7681   9.8003   9.8081   9.8391
     9.9445   9.9629  10.0114  10.0357  10.1644  10.2233  10.2432  10.2860
    10.3040  10.3090  10.3285  10.3675  10.4173  10.5133  10.5575  10.5721
[...]
    11.6483  11.7664  11.7673  11.9078  11.9081  11.9086  11.9858  12.0432
    12.0433  12.0648  12.0867  12.1428  12.1437  12.2375  12.2395  12.2429
    12.2498  12.2508  12.3059  12.3184  12.3310  12.3315  12.3926  12.6658
    12.6664  12.6980  12.7567  12.7572  12.7666  12.8250  12.8388  12.8394
    12.9828  12.9925  13.1269  13.1282  14.0693  14.0702  15.0801  15.0803
    15.3620  15.5654  15.6220  15.6230  15.8796  16.1047  16.1058  16.6994
    16.8079  16.9900  17.0484  17.0490  17.0502  17.0735  17.3936  17.3949
    17.4687  17.5108  17.5128  17.9115  17.9393  17.9406  18.3016  18.3016
    18.3861  18.4109  18.4453  18.5318  18.6639  19.0599  19.4934  19.8160
    20.0613  20.1993

          k =-0.3536 0.3536-0.5441 ( 13686 PWs)   bands (ev):

   -66.3863 -66.3862 -66.3841 -66.3816 -61.8327 -61.8323 -61.8281 -61.8281
   -35.1565 -35.1550 -35.1518 -35.1492 -35.1426 -35.1424 -35.1402 -35.1378
   -35.0875 -35.0855 -35.0835 -35.0804 -30.6726 -30.6715 -30.6668 -30.6635
   -30.6563 -30.6558 -30.6545 -30.6524 -30.6519 -30.6507 -30.6476 -30.6459
     6.9593   7.0632   7.9358   8.0753   8.5542   8.6544   8.7326   8.7418
     8.7698   8.9032   9.0604   9.0904   9.0985   9.1077   9.1639   9.1722
     9.2402   9.2474   9.2720   9.3124   9.3679   9.4054   9.4109   9.4490
     9.5097   9.5965   9.6926   9.7115   9.7204   9.7695   9.8122   9.8547
     9.8849   9.9847  10.0741  10.1332  10.1782  10.1854  10.2244  10.2815
    10.2822  10.3578  10.3803  10.4152  10.5298  10.5790  10.6321  10.7404
    10.7492  10.7716  10.8699  10.9113  10.9154  10.9387  10.9975  11.0115
    11.0351  11.0669  11.0761  11.1626  11.1656  11.2586  11.2600  11.2961
    11.3499  11.3943  11.4114  11.5583  11.5846  11.5904  11.5940  11.6397
    11.6720  11.7021  11.7606  11.8784  11.8798  11.9542  11.9542  11.9774
    12.0029  12.0268  12.0633  12.0700  12.1519  12.1695  12.2239  12.2780
    12.3245  12.3460  12.3909  12.4128  12.4269  12.5488  12.5592  12.5623
    12.5878  12.5999  12.6633  12.6871  12.7236  12.8082  12.8484  12.9452
    13.2321  13.2387  13.5966  13.6006  13.6457  13.8312  13.9946  14.4973
    14.5211  14.8305  15.3724  15.5972  15.6490  15.7843  16.2979  16.3449
    16.4370  16.4458  17.1676  17.3016  17.3145  17.3771  17.3946  17.4170
    17.4407  17.4791  17.5044  17.7321  17.7421  17.7676  17.7956  18.2472
    18.3696  18.3729  18.3829  18.4200  18.5195  18.9752  19.2994  19.3480
    20.2348  20.3716

          k =-0.3536 0.3536 1.0883 ( 13708 PWs)   bands (ev):

   -66.3863 -66.3863 -66.3841 -66.3816 -61.8327 -61.8323 -61.8281 -61.8281
   -35.1565 -35.1550 -35.1518 -35.1492 -35.1427 -35.1424 -35.1402 -35.1378
   -35.0875 -35.0855 -35.0835 -35.0803 -30.6726 -30.6715 -30.6668 -30.6635
   -30.6564 -30.6558 -30.6545 -30.6525 -30.6520 -30.6507 -30.6475 -30.6459
     8.0520   8.1766   8.2977   8.2983   8.4637   8.4711   8.4716   8.5172
     8.6215   8.6216   8.6647   8.7946   8.8778   8.9856   9.0364   9.0369
     9.2304   9.3075   9.4948   9.4952   9.5265   9.5267   9.5536   9.5624
     9.6474   9.6479   9.6709   9.6864   9.7471   9.7875   9.7879   9.8786
     9.9569   9.9698   9.9699  10.0235  10.0235  10.0924  10.0988  10.0996
    10.1080  10.1117  10.1377  10.2062  10.2071  10.2538  10.3489  10.3491
    10.4508  10.4856  10.6160  10.6164  10.6906  10.6906  10.7536  10.7931
    10.8729  11.0556  11.1719  11.1720  11.2797  11.3040  11.4232  11.5360
    11.5367  11.5665  11.6270  11.6271  11.7433  11.7661  11.7670  11.7705
    11.8547  11.9079  11.9083  11.9628  12.0014  12.0435  12.0436  12.1062
    12.1430  12.1437  12.2078  12.2496  12.2505  12.2762  12.3276  12.3314
    12.3320  12.4342  12.4797  12.4891  12.5035  12.5222  12.5959  12.6034
    12.6685  12.6688  12.7559  12.7561  12.8360  12.8364  12.9696  13.0038
    13.1274  13.1286  13.2333  13.3579  13.9124  14.0725  14.0736  14.1740
    15.0793  15.0795  15.2545  15.5410  15.5739  15.5843  15.6234  15.6247
    16.1059  16.1070  17.0429  17.0446  17.2345  17.3071  17.3884  17.3885
    17.3903  17.4084  17.4896  17.4913  17.5578  17.6359  17.7862  17.8444
    17.9541  17.9557  18.2542  18.3136  18.3137  18.4001  18.5633  19.2344
    19.7533  19.7721

          k =-0.5303 0.1768-0.1360 ( 13660 PWs)   bands (ev):

   -66.3863 -66.3862 -66.3841 -66.3816 -61.8327 -61.8323 -61.8281 -61.8281
   -35.1564 -35.1553 -35.1515 -35.1494 -35.1425 -35.1424 -35.1402 -35.1377
   -35.0874 -35.0859 -35.0832 -35.0805 -30.6724 -30.6717 -30.6663 -30.6640
   -30.6561 -30.6557 -30.6541 -30.6525 -30.6518 -30.6511 -30.6473 -30.6461
     6.5455   6.6738   7.6424   7.7407   8.2888   8.6326   8.7090   8.7415
     8.8485   8.9055   9.0993   9.1544   9.1566   9.2755   9.2800   9.3903
     9.4080   9.4114   9.4837   9.4962   9.5077   9.5242   9.5630   9.6098
     9.7118   9.7397   9.8587   9.8982   9.9058   9.9278   9.9765   9.9947
    10.0074  10.0168  10.0840  10.0901  10.1674  10.1962  10.2245  10.2399
    10.2599  10.2830  10.3766  10.4217  10.5495  10.5511  10.5736  10.6035
    10.6386  10.6763  10.7044  10.7214  10.7292  10.8237  10.8827  10.8915
    10.9299  11.0042  11.0363  11.1366  11.1676  11.1786  11.1983  11.2483
    11.3435  11.3472  11.3873  11.3945  11.4618  11.5031  11.5234  11.5342
    11.5733  11.6681  11.6815  11.7481  11.7742  11.8082  11.8747  11.9046
    11.9144  11.9825  12.0881  12.1129  12.1347  12.1566  12.1694  12.1930
    12.2428  12.3101  12.3328  12.3661  12.3664  12.4054  12.4814  12.5677
    12.6081  12.7049  12.7611  12.8182  12.8561  12.8745  12.8866  12.9814
    13.0542  13.2204  13.3664  13.8035  13.9701  14.1048  14.8144  15.1466
    15.4503  15.4638  15.5135  15.5746  15.9696  16.2375  16.3568  16.6294
    16.6811  16.8219  17.0509  17.1755  17.1990  17.2579  17.4337  17.4493
    17.4862  17.5855  17.5912  17.6182  17.8870  17.9061  17.9147  18.1785
    18.3569  18.3763  18.4329  18.4616  18.5652  19.0103  19.4709  19.9032
    20.3972  20.6360

          k =-0.5303 0.1768-0.6802 ( 13694 PWs)   bands (ev):

   -66.3863 -66.3862 -66.3841 -66.3816 -61.8327 -61.8323 -61.8281 -61.8281
   -35.1564 -35.1553 -35.1515 -35.1494 -35.1426 -35.1424 -35.1402 -35.1378
   -35.0873 -35.0859 -35.0832 -35.0805 -30.6725 -30.6717 -30.6663 -30.6640
   -30.6562 -30.6558 -30.6541 -30.6526 -30.6519 -30.6511 -30.6472 -30.6461
     7.3466   7.4082   7.4343   7.5210   8.6736   8.7546   8.8725   8.9306
     8.9719   8.9773   8.9997   9.0198   9.0522   9.0703   9.1008   9.1166
     9.1621   9.2633   9.2851   9.2895   9.3578   9.4054   9.4478   9.4906
     9.5195   9.5858   9.6007   9.6458   9.6570   9.7777   9.7833   9.9463
    10.0298  10.0720  10.0775  10.1040  10.2043  10.2327  10.3232  10.3259
    10.3514  10.3949  10.4294  10.4636  10.4841  10.5108  10.5261  10.5493
    10.5642  10.7089  10.8250  10.8536  10.8916  10.9066  10.9687  10.9992
    11.0306  11.0384  11.0938  11.1576  11.1598  11.1673  11.1981  11.2014
    11.2861  11.3087  11.4266  11.4421  11.4881  11.5395  11.5433  11.5907
    11.6091  11.7661  11.7939  11.8043  11.8567  11.9009  11.9572  11.9977
    12.0152  12.0815  12.1130  12.1158  12.1356  12.1357  12.1526  12.2089
    12.3282  12.3382  12.3549  12.3583  12.4670  12.4940  12.5689  12.5900
    12.6343  12.6642  12.6868  12.7456  12.8429  12.8575  12.8594  13.0013
    13.5061  13.6116  13.7099  13.8544  13.8568  13.9621  14.0120  14.3898
    14.8297  14.9298  15.0995  15.1764  15.6766  15.7938  16.2780  16.3174
    16.6292  16.7261  17.1870  17.2123  17.2893  17.3767  17.3968  17.4004
    17.4264  17.5375  17.5600  17.6838  17.7329  17.8787  18.0080  18.0956
    18.1808  18.2526  18.4962  18.5592  18.7305  18.7358  18.9623  19.1093
    19.6513  19.9755

          k =-0.5303 0.1768 0.9522 ( 13712 PWs)   bands (ev):

   -66.3863 -66.3863 -66.3841 -66.3816 -61.8327 -61.8323 -61.8281 -61.8281
   -35.1564 -35.1553 -35.1515 -35.1494 -35.1427 -35.1424 -35.1402 -35.1378
   -35.0873 -35.0859 -35.0832 -35.0804 -30.6725 -30.6717 -30.6663 -30.6640
   -30.6563 -30.6558 -30.6541 -30.6526 -30.6519 -30.6510 -30.6472 -30.6461
     7.9799   7.9863   8.0157   8.1039   8.5581   8.6045   8.6123   8.6160
     8.6971   8.7285   8.7397   8.7990   8.9538   8.9955   9.0393   9.0724
     9.2634   9.3133   9.3342   9.3420   9.3659   9.4831   9.4895   9.4929
     9.5154   9.5514   9.6487   9.6502   9.6915   9.7152   9.7692   9.8122
     9.8927   9.9111   9.9115  10.0114  10.0159  10.0291  10.0939  10.1302
    10.1644  10.2126  10.2185  10.2614  10.3924  10.3967  10.4271  10.5992
    10.6414  10.6492  10.7731  10.8089  10.8616  10.8723  10.8818  10.9568
    11.0225  11.0795  11.1305  11.2011  11.2694  11.3783  11.4429  11.4436
    11.5378  11.5837  11.6148  11.6412  11.7145  11.7342  11.8011  11.8055
    11.9218  11.9371  11.9569  11.9836  12.0103  12.0351  12.0698  12.1238
    12.1549  12.1723  12.1841  12.2057  12.2148  12.2383  12.2604  12.2703
    12.2969  12.3478  12.3484  12.4141  12.4376  12.4775  12.5439  12.5606
    12.6155  12.6503  12.7546  12.8093  12.9675  12.9894  13.0229  13.0389
    13.0676  13.1179  13.1324  13.2384  13.6069  13.7872  13.9141  14.2221
    14.5130  14.6271  14.6745  15.1511  15.6331  15.6802  15.8817  16.1414
    16.1973  16.3495  17.1032  17.1507  17.2290  17.2906  17.3456  17.3495
    17.4282  17.4423  17.4449  17.5237  17.5401  17.5876  17.7281  17.9531
    18.0177  18.1153  18.1441  18.3358  18.3383  18.4274  18.4316  18.6073
    19.5537  19.9356

          k =-0.5303 0.1768 0.4081 ( 13670 PWs)   bands (ev):

   -66.3863 -66.3862 -66.3841 -66.3816 -61.8327 -61.8323 -61.8281 -61.8281
   -35.1564 -35.1553 -35.1515 -35.1494 -35.1426 -35.1425 -35.1402 -35.1378
   -35.0874 -35.0859 -35.0832 -35.0805 -30.6724 -30.6717 -30.6663 -30.6640
   -30.6562 -30.6558 -30.6541 -30.6526 -30.6519 -30.6511 -30.6472 -30.6461
     6.8291   6.9438   8.3409   8.3712   8.4485   8.5175   8.5358   8.5789
     8.6653   8.8211   9.0476   9.0747   9.1167   9.1701   9.1814   9.2189
     9.2537   9.2921   9.3197   9.3855   9.3911   9.4177   9.4789   9.4948
     9.5534   9.5799   9.6316   9.6928   9.6984   9.7832   9.8162   9.8492
     9.8693   9.9082  10.0456  10.1178  10.1457  10.1495  10.1537  10.1561
    10.2249  10.3644  10.3695  10.5076  10.5605  10.6123  10.6556  10.6676
    10.7630  10.7638  10.8751  10.9149  10.9203  10.9622  11.0848  11.0863
    11.0944  11.1076  11.1212  11.1431  11.2509  11.2667  11.3766  11.4109
    11.4295  11.4810  11.5033  11.5128  11.6018  11.6440  11.6592  11.6888
    11.7337  11.7665  11.7992  11.8880  11.9469  11.9764  11.9974  12.0717
    12.0894  12.1179  12.1271  12.1569  12.1611  12.1938  12.2434  12.2681
    12.3058  12.3365  12.3564  12.4001  12.4449  12.4983  12.5324  12.5476
    12.5912  12.6145  12.6546  12.7328  12.8002  12.8156  12.8299  12.8397
    12.8690  12.8739  12.9093  12.9902  13.4879  13.7045  14.5175  14.7711
    14.9166  15.0102  15.3832  15.3843  15.5983  15.8070  15.8964  16.1142
    16.1887  16.7305  17.1116  17.1616  17.1766  17.2064  17.3380  17.3852
    17.4793  17.5038  17.5188  17.5552  17.6486  17.8477  17.8502  18.1271
    18.1524  18.3138  18.3234  18.3792  19.1524  19.4828  19.6362  19.6482
    19.8116  19.9063

          k = 0.0000 0.7071 0.2721 ( 13680 PWs)   bands (ev):

   -66.3863 -66.3862 -66.3841 -66.3816 -61.8327 -61.8323 -61.8281 -61.8281
   -35.1561 -35.1557 -35.1513 -35.1495 -35.1425 -35.1425 -35.1402 -35.1377
   -35.0871 -35.0863 -35.0829 -35.0806 -30.6722 -30.6720 -30.6652 -30.6651
   -30.6561 -30.6558 -30.6534 -30.6530 -30.6518 -30.6514 -30.6467 -30.6465
     6.9929   6.9936   7.1068   7.1068   8.6046   8.6053   8.8889   8.8889
     9.0242   9.0244   9.0385   9.0386   9.2223   9.2226   9.2525   9.2525
     9.3669   9.3669   9.4038   9.4038   9.4860   9.4865   9.5686   9.5690
     9.6018   9.6022   9.7764   9.7766  10.0195  10.0195  10.0248  10.0251
    10.0603  10.0609  10.1058  10.1061  10.1628  10.1632  10.1780  10.1783
    10.3527  10.3531  10.5273  10.5284  10.5620  10.5621  10.6385  10.6389
    10.7528  10.7529  10.8309  10.8310  10.8605  10.8605  10.8745  10.8752
    11.0629  11.0634  11.0776  11.0779  11.1283  11.1289  11.1738  11.1739
    11.2034  11.2037  11.3518  11.3523  11.3751  11.3759  11.4296  11.4301
    11.5158  11.5162  11.5308  11.5308  11.7279  11.7286  11.8315  11.8316
    12.0194  12.0201  12.0438  12.0440  12.1079  12.1080  12.1372  12.1377
    12.2556  12.2558  12.3277  12.3280  12.4463  12.4466  12.6101  12.6102
    12.6902  12.6904  12.7931  12.7936  12.8301  12.8302  12.8741  12.8746
    13.5525  13.5530  13.6507  13.6510  14.2525  14.2528  14.9780  14.9783
    15.3619  15.3628  15.4227  15.4239  16.0720  16.0728  16.4019  16.4028
    16.9141  16.9141  16.9224  16.9236  17.3418  17.3429  17.5179  17.5189
    17.5998  17.6012  17.6419  17.6436  17.8811  17.8823  18.0529  18.0545
    18.2204  18.2210  18.5799  18.5804  19.0299  19.0307  19.1489  19.1490
    20.6783  20.6786

          k = 0.0000 0.7071-0.2721 ( 13688 PWs)   bands (ev):

   -66.3863 -66.3862 -66.3841 -66.3816 -61.8327 -61.8323 -61.8281 -61.8281
   -35.1561 -35.1557 -35.1513 -35.1495 -35.1426 -35.1425 -35.1402 -35.1378
   -35.0871 -35.0863 -35.0829 -35.0806 -30.6722 -30.6721 -30.6652 -30.6651
   -30.6561 -30.6558 -30.6534 -30.6531 -30.6518 -30.6514 -30.6467 -30.6465
     6.9935   7.1072   7.8692   7.9535   8.6040   8.6317   8.6640   8.7880
     8.8374   8.8898   9.0226   9.0384   9.0586   9.0678   9.1615   9.2101
     9.2237   9.2536   9.3114   9.3662   9.4037   9.4721   9.4872   9.5564
     9.5683   9.6028   9.6242   9.6503   9.7068   9.7763   9.8228   9.9897
    10.0186  10.0242  10.0623  10.0786  10.1057  10.1142  10.1597  10.1772
    10.2060  10.2421  10.3538  10.5294  10.5354  10.5415  10.5647  10.6392
    10.7502  10.8316  10.8598  10.8751  10.9048  10.9705  10.9802  11.0631
    11.0739  11.0785  11.1275  11.1718  11.1776  11.2034  11.2131  11.3526
    11.3748  11.4001  11.4297  11.4418  11.5196  11.5325  11.5566  11.6411
    11.7250  11.7435  11.8309  11.9318  11.9946  12.0131  12.0190  12.0243
    12.0439  12.0545  12.0795  12.0916  12.1080  12.1396  12.2203  12.2465
    12.2561  12.2956  12.3282  12.3560  12.4313  12.4473  12.5376  12.6101
    12.6426  12.6918  12.6922  12.7013  12.7919  12.8296  12.8315  12.8745
    13.1567  13.3792  13.4372  13.5523  13.6511  13.7719  14.2533  14.3643
    14.7286  14.9835  15.3601  15.4253  15.8863  16.0727  16.1597  16.4033
    16.4164  16.7069  16.9138  16.9158  17.2497  17.2651  17.3369  17.4392
    17.5067  17.5410  17.5997  17.6330  17.6413  17.6827  17.8855  18.0656
    18.1273  18.2088  18.2207  18.3579  18.4915  18.5845  19.0347  19.1551
    20.5386  20.6799

          k = 0.0000 0.7071 1.3603 ( 13696 PWs)   bands (ev):

   -66.3863 -66.3863 -66.3841 -66.3816 -61.8327 -61.8323 -61.8281 -61.8281
   -35.1561 -35.1557 -35.1513 -35.1495 -35.1426 -35.1425 -35.1402 -35.1378
   -35.0871 -35.0863 -35.0829 -35.0806 -30.6722 -30.6721 -30.6652 -30.6651
   -30.6562 -30.6559 -30.6534 -30.6531 -30.6518 -30.6514 -30.6466 -30.6465
     7.8705   7.8705   7.9544   7.9545   8.6315   8.6325   8.6613   8.6616
     8.7873   8.7875   8.8373   8.8380   9.0585   9.0589   9.0669   9.0674
     9.1624   9.1627   9.2076   9.2076   9.3110   9.3112   9.4744   9.4746
     9.5574   9.5575   9.6243   9.6249   9.6495   9.6498   9.7087   9.7092
     9.8217   9.8221   9.9889   9.9891  10.0747  10.0748  10.1129  10.1132
    10.2048  10.2050  10.2447  10.2452  10.5356  10.5360  10.5443  10.5448
    10.9054  10.9054  10.9708  10.9709  10.9801  10.9804  11.0743  11.0744
    11.1786  11.1789  11.2117  11.2117  11.3987  11.3988  11.4447  11.4448
    11.5526  11.5535  11.6423  11.6425  11.7427  11.7430  11.9300  11.9307
    11.9918  11.9922  12.0120  12.0123  12.0251  12.0251  12.0550  12.0554
    12.0797  12.0802  12.0917  12.0921  12.2204  12.2208  12.2462  12.2463
    12.2966  12.2967  12.3578  12.3585  12.4292  12.4297  12.5376  12.5381
    12.6420  12.6423  12.6904  12.6904  12.7023  12.7025  12.8312  12.8318
    13.1573  13.1577  13.3800  13.3802  13.4362  13.4368  13.7718  13.7726
    14.3646  14.3646  14.7296  14.7302  15.8884  15.8891  16.1583  16.1594
    16.4176  16.4181  16.7121  16.7129  17.2518  17.2527  17.2650  17.2663
    17.4318  17.4337  17.5122  17.5131  17.6282  17.6292  17.6976  17.6989
    18.1331  18.1338  18.2114  18.2125  18.3652  18.3666  18.4891  18.4898
    20.5396  20.5397

     the Fermi energy is    15.5728 ev

!    total energy              =  -14693.94006163 Ry
     Harris-Foulkes estimate   =  -14693.94004490 Ry
     estimated scf accuracy    <       0.00000062 Ry

     total all-electron energy =   -626921.535784 Ry

     The total energy is the sum of the following terms:

     one-electron contribution =    -698.61648502 Ry
     hartree contribution      =     651.71179442 Ry
     xc contribution           =    -738.08416134 Ry
     ewald contribution        =   -2207.56121140 Ry
     Hubbard energy            =       0.46882338 Ry
     one-center paw contrib.   =  -11701.85882166 Ry

     total magnetization       =     0.00 Bohr mag/cell
     absolute magnetization    =    36.81 Bohr mag/cell

     convergence has been achieved in  19 iterations

     Writing output data file mnau2.save/
 
     init_run     :     19.90s CPU     20.69s WALL (       1 calls)
     electrons    :    934.23s CPU    960.03s WALL (       1 calls)

     Called by init_run:
     wfcinit      :     17.64s CPU     18.32s WALL (       1 calls)
     potinit      :      1.15s CPU      1.19s WALL (       1 calls)
     hinit0       :      0.68s CPU      0.71s WALL (       1 calls)

     Called by electrons:
     c_bands      :    818.88s CPU    840.59s WALL (      19 calls)
     sum_band     :     94.79s CPU     97.82s WALL (      19 calls)
     v_of_rho     :      1.63s CPU      1.65s WALL (      20 calls)
     newd         :      6.01s CPU      6.77s WALL (      20 calls)
     PAW_pot      :     13.57s CPU     13.63s WALL (      20 calls)
     mix_rho      :      0.24s CPU      0.26s WALL (      19 calls)

     Called by c_bands:
     init_us_2    :      5.92s CPU      5.97s WALL (    2400 calls)
     cegterg      :    781.55s CPU    802.77s WALL (    1140 calls)

     Called by sum_band:
     sum_band:bec :      0.82s CPU      0.82s WALL (    1140 calls)
     addusdens    :     11.33s CPU     12.27s WALL (      19 calls)

     Called by *egterg:
     h_psi        :    325.08s CPU    335.58s WALL (    4572 calls)
     s_psi        :     46.99s CPU     47.23s WALL (    4632 calls)
     g_psi        :      1.77s CPU      1.78s WALL (    3372 calls)
     cdiaghg      :    312.81s CPU    319.02s WALL (    4512 calls)

     Called by h_psi:
     h_psi:pot    :    310.44s CPU    319.25s WALL (    4572 calls)
     h_psi:calbec :     43.95s CPU     46.63s WALL (    4572 calls)
     vloc_psi     :    221.27s CPU    227.06s WALL (    4572 calls)
     add_vuspsi   :     45.18s CPU     45.53s WALL (    4572 calls)
     vhpsi        :     13.17s CPU     13.24s WALL (    4572 calls)

     General routines
     calbec       :     72.65s CPU     76.22s WALL (   11484 calls)
     fft          :      0.84s CPU      0.87s WALL (     496 calls)
     ffts         :      0.04s CPU      0.04s WALL (      78 calls)
     fftw         :    245.61s CPU    251.68s WALL ( 1121406 calls)
     interpolate  :      0.09s CPU      0.09s WALL (      40 calls)
     davcio       :      0.00s CPU      0.24s WALL (      60 calls)
 
     Parallel routines
     fft_scatt_xy :     30.60s CPU     31.32s WALL ( 1121980 calls)
     fft_scatt_yz :     79.62s CPU     81.83s WALL ( 1121980 calls)

     Hubbard U routines
     new_ns       :      3.78s CPU      3.93s WALL (      19 calls)
     vhpsi        :     13.17s CPU     13.24s WALL (    4572 calls)
 
     PWSCF        : 16m 0.56s CPU    16m44.05s WALL

 
   This run was terminated on:  13:31: 7  26Mar2019            

=------------------------------------------------------------------------------=
   JOB DONE.
=------------------------------------------------------------------------------=
