
     Program PWSCF v.6.3MaX starts on 26Mar2019 at 12: 4:23 

     This program is part of the open-source Quantum ESPRESSO suite
     for quantum simulation of materials; please cite
         "P. Giannozzi et al., J. Phys.:Condens. Matter 21 395502 (2009);
         "P. Giannozzi et al., J. Phys.:Condens. Matter 29 465901 (2017);
          URL http://www.quantum-espresso.org", 
     in publications or presentations arising from this work. More details at
     http://www.quantum-espresso.org/quote

     Parallel version (MPI), running on    16 processors

     MPI processes distributed on     1 nodes
     R & G space division:  proc/nbgrp/npool/nimage =      16
     Waiting for input...
     Reading input from standard input

     Current dimensions of program PWSCF are:
     Max number of different atomic species (ntypx) = 10
     Max number of k-points (npk) =  40000
     Max angular momentum in pseudopotentials (lmaxx) =  3
     Message from routine read_upf::
     Pseudo file ./pseudo/Mn.pbe-spn-kjpaw_psl.0.3.1.UPF has been successfully fixed on the fly.
To avoid this message in the future you can permanently fix 
 your pseudo files following instructions given in: 
https://gitlab.com/QEF/q-e/blob/master/upftools/how_to_fix_upf.md
               file Mn.pbe-spn-kjpaw_psl.0.3.1.UPF: wavefunction(s)  3P 3D renormalized
     Message from routine read_upf::
     Pseudo file ./pseudo/Mn.pbe-spn-kjpaw_psl.0.3.1.UPF has been successfully fixed on the fly.
To avoid this message in the future you can permanently fix 
 your pseudo files following instructions given in: 
https://gitlab.com/QEF/q-e/blob/master/upftools/how_to_fix_upf.md
               file Mn.pbe-spn-kjpaw_psl.0.3.1.UPF: wavefunction(s)  3P 3D renormalized
     Message from routine read_upf::
     Pseudo file ./pseudo/Au.pbe-dn-kjpaw_psl.0.1.UPF has been successfully fixed on the fly.
To avoid this message in the future you can permanently fix 
 your pseudo files following instructions given in: 
https://gitlab.com/QEF/q-e/blob/master/upftools/how_to_fix_upf.md
               file Au.pbe-dn-kjpaw_psl.0.1.UPF: wavefunction(s)  6S 6P 5D renormalized

     Subspace diagonalization in iterative solution of the eigenvalue problem:
     one sub-group per band group will be used
     scalapack distributed-memory algorithm (size of sub-group:  2*  2 procs)

 
     Parallelization info
     --------------------
     sticks:   dense  smooth     PW     G-vecs:    dense   smooth      PW
     Min         646     290     84                22663     6843    1075
     Max         647     291     85                22664     6844    1077
     Sum       10349    4645   1353               362619   109493   17211
 


     bravais-lattice index     =            0
     lattice parameter (alat)  =      18.0125  a.u.
     unit-cell volume          =    2685.0513 (a.u.)^3
     number of atoms/cell      =           24
     number of atomic types    =            3
     number of electrons       =       296.00
     number of Kohn-Sham states=          178
     kinetic-energy cutoff     =      45.0000  Ry
     charge density cutoff     =     400.0000  Ry
     convergence threshold     =      1.0E-06
     mixing beta               =       0.1000
     number of iterations used =            8  plain     mixing
     Exchange-correlation      = SLA PW PBX PBC ( 1  4  3  4 0 0)

     celldm(1)=  18.012490  celldm(2)=   0.000000  celldm(3)=   0.000000
     celldm(4)=   0.000000  celldm(5)=   0.000000  celldm(6)=   0.000000

     crystal axes: (cart. coord. in units of alat)
               a(1) = (   0.707107  -0.707107   0.000000 )  
               a(2) = (  -0.707107  -0.707107   0.000000 )  
               a(3) = (   0.176777   0.176777  -0.459443 )  

     reciprocal axes: (cart. coord. in units 2 pi/alat)
               b(1) = (  0.707107 -0.707107  0.000000 )  
               b(2) = ( -0.707107 -0.707107 -0.544138 )  
               b(3) = (  0.000000  0.000000 -2.176550 )  


     PseudoPot. # 1 for Mn read from file:
     ./pseudo/Mn.pbe-spn-kjpaw_psl.0.3.1.UPF
     MD5 check sum: 7eef95dd2aae66803482eea66ebeebf1
     Pseudo is Projector augmented-wave + core cor, Zval = 15.0
     Generated using "atomic" code by A. Dal Corso v.5.0.99 svn rev. 10869
     Shape of augmentation charge: PSQ
     Using radial grid of 1187 points,  6 beta functions with: 
                l(1) =   0
                l(2) =   0
                l(3) =   1
                l(4) =   1
                l(5) =   2
                l(6) =   2
     Q(r) pseudized with 0 coefficients 


     PseudoPot. # 2 for Mn read from file:
     ./pseudo/Mn.pbe-spn-kjpaw_psl.0.3.1.UPF
     MD5 check sum: 7eef95dd2aae66803482eea66ebeebf1
     Pseudo is Projector augmented-wave + core cor, Zval = 15.0
     Generated using "atomic" code by A. Dal Corso v.5.0.99 svn rev. 10869
     Shape of augmentation charge: PSQ
     Using radial grid of 1187 points,  6 beta functions with: 
                l(1) =   0
                l(2) =   0
                l(3) =   1
                l(4) =   1
                l(5) =   2
                l(6) =   2
     Q(r) pseudized with 0 coefficients 


     PseudoPot. # 3 for Au read from file:
     ./pseudo/Au.pbe-dn-kjpaw_psl.0.1.UPF
     MD5 check sum: 5c9b92683623e7ae2ab3f8e525febab6
     Pseudo is Projector augmented-wave + core cor, Zval = 11.0
     Generated using "atomic" code by A. Dal Corso v.5.0.2 svn rev. 9415
     Shape of augmentation charge: PSQ
     Using radial grid of 1279 points,  6 beta functions with: 
                l(1) =   0
                l(2) =   0
                l(3) =   1
                l(4) =   1
                l(5) =   2
                l(6) =   2
     Q(r) pseudized with 0 coefficients 


     atomic species   valence    mass     pseudopotential
        Mn1           15.00    54.93800     Mn( 1.00)
        Mn2           15.00    54.93800     Mn( 1.00)
        Au            11.00   196.96600     Au( 1.00)

     Starting magnetic structure 
     atomic species   magnetization
        Mn1          1.000
        Mn2         -1.000
        Au           0.000


     Full LDA+U calculation (l_max = 2) with parameters (eV):
     U(  1) =   3.1200   J(  1) =   0.7000   B(  1) =   0.0803
     U(  2) =   3.1200   J(  2) =   0.7000   B(  2) =   0.0803



      2 Sym. Ops., with inversion, found ( 1 have fractional translation)



   Cartesian axes

     site n.     atom                  positions (alat units)
         1           Mn1 tau(   1) = (   0.3535534  -0.3535534   0.0000000  )
         2           Mn1 tau(   2) = (   0.0000000   0.0000000   0.0000000  )
         3           Mn2 tau(   3) = (   0.0000000  -0.3535534   0.0000000  )
         4           Mn1 tau(   4) = (   0.3535534  -0.7071068   0.0000000  )
         5           Mn1 tau(   5) = (  -0.3535534  -0.3535534   0.0000000  )
         6           Mn2 tau(   6) = (   0.0000000  -0.7071068   0.0000000  )
         7           Mn1 tau(   7) = (  -0.3535534  -0.7071068   0.0000000  )
         8           Mn1 tau(   8) = (   0.0000000  -1.0606602   0.0000000  )
         9           Au  tau(   9) = (  -0.1767767  -0.1767767  -0.1470216  )
        10           Au  tau(  10) = (   0.1767767  -0.5303301  -0.1470216  )
        11           Au  tau(  11) = (  -0.1767767  -0.5303301  -0.1470216  )
        12           Au  tau(  12) = (   0.1767767  -0.8838835  -0.1470216  )
        13           Au  tau(  13) = (  -0.5303301  -0.5303301  -0.1470216  )
        14           Au  tau(  14) = (  -0.1767767  -0.8838835  -0.1470216  )
        15           Au  tau(  15) = (   0.5303301  -0.5303301  -0.1470216  )
        16           Au  tau(  16) = (   0.1767767  -0.1767767  -0.1470216  )
        17           Au  tau(  17) = (   0.3535534  -0.3535534  -0.3124210  )
        18           Au  tau(  18) = (   0.0000000   0.0000000  -0.3124210  )
        19           Au  tau(  19) = (   0.0000000  -0.3535534  -0.3124210  )
        20           Au  tau(  20) = (   0.3535534  -0.7071068  -0.3124210  )
        21           Au  tau(  21) = (  -0.3535534  -0.3535534  -0.3124210  )
        22           Au  tau(  22) = (  -0.0000000  -0.7071068  -0.3124210  )
        23           Au  tau(  23) = (  -0.3535534  -0.7071068  -0.3124210  )
        24           Au  tau(  24) = (   0.0000000  -1.0606602  -0.3124210  )

     number of k points=    36 (tetrahedron method)
                       cart. coord. in units 2pi/alat
        k(    1) = (   0.0000000   0.0000000   0.0000000), wk =   0.0156250
        k(    2) = (   0.0000000   0.0000000  -0.5441376), wk =   0.0312500
        k(    3) = (   0.0000000   0.0000000   1.0882752), wk =   0.0156250
        k(    4) = (  -0.1767767  -0.1767767  -0.1360344), wk =   0.0312500
        k(    5) = (  -0.1767767  -0.1767767  -0.6801720), wk =   0.0312500
        k(    6) = (  -0.1767767  -0.1767767   0.9522408), wk =   0.0312500
        k(    7) = (  -0.1767767  -0.1767767   0.4081032), wk =   0.0312500
        k(    8) = (   0.3535534   0.3535534   0.2720688), wk =   0.0156250
        k(    9) = (   0.3535534   0.3535534  -0.2720688), wk =   0.0312500
        k(   10) = (   0.3535534   0.3535534   1.3603439), wk =   0.0156250
        k(   11) = (   0.1767767  -0.1767767   0.0000000), wk =   0.0312500
        k(   12) = (   0.1767767  -0.1767767  -0.5441376), wk =   0.0312500
        k(   13) = (   0.1767767  -0.1767767   1.0882752), wk =   0.0312500
        k(   14) = (   0.0000000  -0.3535534  -0.1360344), wk =   0.0312500
        k(   15) = (   0.0000000  -0.3535534  -0.6801720), wk =   0.0312500
        k(   16) = (   0.0000000  -0.3535534   0.9522408), wk =   0.0312500
        k(   17) = (   0.0000000  -0.3535534   0.4081032), wk =   0.0312500
        k(   18) = (   0.5303301   0.1767767   0.2720688), wk =   0.0312500
        k(   19) = (   0.5303301   0.1767767  -0.2720688), wk =   0.0312500
        k(   20) = (   0.5303301   0.1767767   1.3603439), wk =   0.0312500
        k(   21) = (  -0.3535534   0.3535534   0.0000000), wk =   0.0156250
        k(   22) = (  -0.3535534   0.3535534  -0.5441376), wk =   0.0312500
        k(   23) = (  -0.3535534   0.3535534   1.0882752), wk =   0.0156250
        k(   24) = (  -0.5303301   0.1767767  -0.1360344), wk =   0.0312500
        k(   25) = (  -0.5303301   0.1767767  -0.6801720), wk =   0.0312500
        k(   26) = (  -0.5303301   0.1767767   0.9522408), wk =   0.0312500
        k(   27) = (  -0.5303301   0.1767767   0.4081032), wk =   0.0312500
        k(   28) = (   0.0000000   0.7071068   0.2720688), wk =   0.0156250
        k(   29) = (   0.0000000   0.7071068  -0.2720688), wk =   0.0312500
        k(   30) = (   0.0000000   0.7071068   1.3603439), wk =   0.0156250
        k(   31) = (   0.1767767  -0.1767767   0.5441376), wk =   0.0312500
        k(   32) = (   0.3535534   0.0000000   0.1360344), wk =   0.0312500
        k(   33) = (   0.3535534   0.0000000   0.6801720), wk =   0.0312500
        k(   34) = (   0.3535534   0.0000000  -0.9522408), wk =   0.0312500
        k(   35) = (   0.3535534   0.0000000  -0.4081032), wk =   0.0312500
        k(   36) = (  -0.1767767  -0.5303301   0.2720688), wk =   0.0312500

     Dense  grid:   362619 G-vectors     FFT dimensions: ( 120, 120,  60)

     Smooth grid:   109493 G-vectors     FFT dimensions: (  80,  80,  45)

     Estimated max dynamical RAM per process >     321.00 MB

     Estimated total dynamical RAM >       5.02 GB
     Generating pointlists ...
     new r_m :   0.1196 (alat units)  2.1549 (a.u.) for type    1
     new r_m :   0.1196 (alat units)  2.1549 (a.u.) for type    2
     new r_m :   0.1196 (alat units)  2.1549 (a.u.) for type    3

     Check: negative/imaginary core charge=   -0.000006    0.000000

     Initial potential from superposition of free atoms

     starting charge  295.99426, renormalised to  296.00000
     Number of +U iterations with fixed ns =  0
     Starting occupations:
 --- enter write_ns ---
 LDA+U parameters:
U(  1) =   3.1200   J(  1) =   0.7000   B(  1) =   0.0803
U(  2) =   3.1200   J(  2) =   0.7000   B(  2) =   0.0803
atom    1   Tr[ns(na)] (up, down, total) =   5.00000  0.00000  5.00000
   spin  1
    eigenvalues: 
  1.000  1.000  1.000  1.000  1.000
    eigenvectors:
  1.000  0.000  0.000  0.000  0.000
  0.000  1.000  0.000  0.000  0.000
  0.000  0.000  1.000  0.000  0.000
  0.000  0.000  0.000  1.000  0.000
  0.000  0.000  0.000  0.000  1.000
    occupations:
  1.000  0.000  0.000  0.000  0.000
  0.000  1.000  0.000  0.000  0.000
  0.000  0.000  1.000  0.000  0.000
  0.000  0.000  0.000  1.000  0.000
  0.000  0.000  0.000  0.000  1.000
   spin  2
    eigenvalues: 
  0.000  0.000  0.000  0.000  0.000
    eigenvectors:
  1.000  0.000  0.000  0.000  0.000
  0.000  1.000  0.000  0.000  0.000
  0.000  0.000  1.000  0.000  0.000
  0.000  0.000  0.000  1.000  0.000
  0.000  0.000  0.000  0.000  1.000
    occupations:
  0.000  0.000  0.000  0.000  0.000
  0.000  0.000  0.000  0.000  0.000
  0.000  0.000  0.000  0.000  0.000
  0.000  0.000  0.000  0.000  0.000
  0.000  0.000  0.000  0.000  0.000
atomic mag. moment =     5.000000
atom    2   Tr[ns(na)] (up, down, total) =   5.00000  0.00000  5.00000
   spin  1
    eigenvalues: 
  1.000  1.000  1.000  1.000  1.000
    eigenvectors:
  1.000  0.000  0.000  0.000  0.000
  0.000  1.000  0.000  0.000  0.000
  0.000  0.000  1.000  0.000  0.000
  0.000  0.000  0.000  1.000  0.000
  0.000  0.000  0.000  0.000  1.000
    occupations:
  1.000  0.000  0.000  0.000  0.000
  0.000  1.000  0.000  0.000  0.000
  0.000  0.000  1.000  0.000  0.000
  0.000  0.000  0.000  1.000  0.000
  0.000  0.000  0.000  0.000  1.000
   spin  2
    eigenvalues: 
  0.000  0.000  0.000  0.000  0.000
    eigenvectors:
  1.000  0.000  0.000  0.000  0.000
  0.000  1.000  0.000  0.000  0.000
  0.000  0.000  1.000  0.000  0.000
  0.000  0.000  0.000  1.000  0.000
  0.000  0.000  0.000  0.000  1.000
    occupations:
  0.000  0.000  0.000  0.000  0.000
  0.000  0.000  0.000  0.000  0.000
  0.000  0.000  0.000  0.000  0.000
  0.000  0.000  0.000  0.000  0.000
  0.000  0.000  0.000  0.000  0.000
atomic mag. moment =     5.000000
atom    3   Tr[ns(na)] (up, down, total) =   0.00000  5.00000  5.00000
   spin  1
    eigenvalues: 
  0.000  0.000  0.000  0.000  0.000
    eigenvectors:
  1.000  0.000  0.000  0.000  0.000
  0.000  1.000  0.000  0.000  0.000
  0.000  0.000  1.000  0.000  0.000
  0.000  0.000  0.000  1.000  0.000
  0.000  0.000  0.000  0.000  1.000
    occupations:
  0.000  0.000  0.000  0.000  0.000
  0.000  0.000  0.000  0.000  0.000
  0.000  0.000  0.000  0.000  0.000
  0.000  0.000  0.000  0.000  0.000
  0.000  0.000  0.000  0.000  0.000
   spin  2
    eigenvalues: 
  1.000  1.000  1.000  1.000  1.000
    eigenvectors:
  1.000  0.000  0.000  0.000  0.000
  0.000  1.000  0.000  0.000  0.000
  0.000  0.000  1.000  0.000  0.000
  0.000  0.000  0.000  1.000  0.000
  0.000  0.000  0.000  0.000  1.000
    occupations:
  1.000  0.000  0.000  0.000  0.000
  0.000  1.000  0.000  0.000  0.000
  0.000  0.000  1.000  0.000  0.000
  0.000  0.000  0.000  1.000  0.000
  0.000  0.000  0.000  0.000  1.000
atomic mag. moment =    -5.000000
atom    4   Tr[ns(na)] (up, down, total) =   5.00000  0.00000  5.00000
   spin  1
    eigenvalues: 
  1.000  1.000  1.000  1.000  1.000
    eigenvectors:
  1.000  0.000  0.000  0.000  0.000
  0.000  1.000  0.000  0.000  0.000
  0.000  0.000  1.000  0.000  0.000
  0.000  0.000  0.000  1.000  0.000
  0.000  0.000  0.000  0.000  1.000
    occupations:
  1.000  0.000  0.000  0.000  0.000
  0.000  1.000  0.000  0.000  0.000
  0.000  0.000  1.000  0.000  0.000
  0.000  0.000  0.000  1.000  0.000
  0.000  0.000  0.000  0.000  1.000
   spin  2
    eigenvalues: 
  0.000  0.000  0.000  0.000  0.000
    eigenvectors:
  1.000  0.000  0.000  0.000  0.000
  0.000  1.000  0.000  0.000  0.000
  0.000  0.000  1.000  0.000  0.000
  0.000  0.000  0.000  1.000  0.000
  0.000  0.000  0.000  0.000  1.000
    occupations:
  0.000  0.000  0.000  0.000  0.000
  0.000  0.000  0.000  0.000  0.000
  0.000  0.000  0.000  0.000  0.000
  0.000  0.000  0.000  0.000  0.000
  0.000  0.000  0.000  0.000  0.000
atomic mag. moment =     5.000000
atom    5   Tr[ns(na)] (up, down, total) =   5.00000  0.00000  5.00000
   spin  1
    eigenvalues: 
  1.000  1.000  1.000  1.000  1.000
    eigenvectors:
  1.000  0.000  0.000  0.000  0.000
  0.000  1.000  0.000  0.000  0.000
  0.000  0.000  1.000  0.000  0.000
  0.000  0.000  0.000  1.000  0.000
  0.000  0.000  0.000  0.000  1.000
    occupations:
  1.000  0.000  0.000  0.000  0.000
  0.000  1.000  0.000  0.000  0.000
  0.000  0.000  1.000  0.000  0.000
  0.000  0.000  0.000  1.000  0.000
  0.000  0.000  0.000  0.000  1.000
   spin  2
    eigenvalues: 
  0.000  0.000  0.000  0.000  0.000
    eigenvectors:
  1.000  0.000  0.000  0.000  0.000
  0.000  1.000  0.000  0.000  0.000
  0.000  0.000  1.000  0.000  0.000
  0.000  0.000  0.000  1.000  0.000
  0.000  0.000  0.000  0.000  1.000
    occupations:
  0.000  0.000  0.000  0.000  0.000
  0.000  0.000  0.000  0.000  0.000
  0.000  0.000  0.000  0.000  0.000
  0.000  0.000  0.000  0.000  0.000
  0.000  0.000  0.000  0.000  0.000
atomic mag. moment =     5.000000
atom    6   Tr[ns(na)] (up, down, total) =   0.00000  5.00000  5.00000
   spin  1
    eigenvalues: 
  0.000  0.000  0.000  0.000  0.000
    eigenvectors:
  1.000  0.000  0.000  0.000  0.000
  0.000  1.000  0.000  0.000  0.000
  0.000  0.000  1.000  0.000  0.000
  0.000  0.000  0.000  1.000  0.000
  0.000  0.000  0.000  0.000  1.000
    occupations:
  0.000  0.000  0.000  0.000  0.000
  0.000  0.000  0.000  0.000  0.000
  0.000  0.000  0.000  0.000  0.000
  0.000  0.000  0.000  0.000  0.000
  0.000  0.000  0.000  0.000  0.000
   spin  2
    eigenvalues: 
  1.000  1.000  1.000  1.000  1.000
    eigenvectors:
  1.000  0.000  0.000  0.000  0.000
  0.000  1.000  0.000  0.000  0.000
  0.000  0.000  1.000  0.000  0.000
  0.000  0.000  0.000  1.000  0.000
  0.000  0.000  0.000  0.000  1.000
    occupations:
  1.000  0.000  0.000  0.000  0.000
  0.000  1.000  0.000  0.000  0.000
  0.000  0.000  1.000  0.000  0.000
  0.000  0.000  0.000  1.000  0.000
  0.000  0.000  0.000  0.000  1.000
atomic mag. moment =    -5.000000
atom    7   Tr[ns(na)] (up, down, total) =   5.00000  0.00000  5.00000
   spin  1
    eigenvalues: 
  1.000  1.000  1.000  1.000  1.000
    eigenvectors:
  1.000  0.000  0.000  0.000  0.000
  0.000  1.000  0.000  0.000  0.000
  0.000  0.000  1.000  0.000  0.000
  0.000  0.000  0.000  1.000  0.000
  0.000  0.000  0.000  0.000  1.000
    occupations:
  1.000  0.000  0.000  0.000  0.000
  0.000  1.000  0.000  0.000  0.000
  0.000  0.000  1.000  0.000  0.000
  0.000  0.000  0.000  1.000  0.000
  0.000  0.000  0.000  0.000  1.000
   spin  2
    eigenvalues: 
  0.000  0.000  0.000  0.000  0.000
    eigenvectors:
  1.000  0.000  0.000  0.000  0.000
  0.000  1.000  0.000  0.000  0.000
  0.000  0.000  1.000  0.000  0.000
  0.000  0.000  0.000  1.000  0.000
  0.000  0.000  0.000  0.000  1.000
    occupations:
  0.000  0.000  0.000  0.000  0.000
  0.000  0.000  0.000  0.000  0.000
  0.000  0.000  0.000  0.000  0.000
  0.000  0.000  0.000  0.000  0.000
  0.000  0.000  0.000  0.000  0.000
atomic mag. moment =     5.000000
atom    8   Tr[ns(na)] (up, down, total) =   5.00000  0.00000  5.00000
   spin  1
    eigenvalues: 
  1.000  1.000  1.000  1.000  1.000
    eigenvectors:
  1.000  0.000  0.000  0.000  0.000
  0.000  1.000  0.000  0.000  0.000
  0.000  0.000  1.000  0.000  0.000
  0.000  0.000  0.000  1.000  0.000
  0.000  0.000  0.000  0.000  1.000
    occupations:
  1.000  0.000  0.000  0.000  0.000
  0.000  1.000  0.000  0.000  0.000
  0.000  0.000  1.000  0.000  0.000
  0.000  0.000  0.000  1.000  0.000
  0.000  0.000  0.000  0.000  1.000
   spin  2
    eigenvalues: 
  0.000  0.000  0.000  0.000  0.000
    eigenvectors:
  1.000  0.000  0.000  0.000  0.000
  0.000  1.000  0.000  0.000  0.000
  0.000  0.000  1.000  0.000  0.000
  0.000  0.000  0.000  1.000  0.000
  0.000  0.000  0.000  0.000  1.000
    occupations:
  0.000  0.000  0.000  0.000  0.000
  0.000  0.000  0.000  0.000  0.000
  0.000  0.000  0.000  0.000  0.000
  0.000  0.000  0.000  0.000  0.000
  0.000  0.000  0.000  0.000  0.000
atomic mag. moment =     5.000000
N of occupied +U levels =   40.000000
 --- exit write_ns ---
 Atomic wfc used for LDA+U Projector are NOT orthogonalized
     Starting wfcs are  224 randomized atomic wfcs
     Checking if some PAW data can be deallocated... 

     total cpu time spent up to now is       29.8 secs

     Self-consistent Calculation

     iteration #  1     ecut=    45.00 Ry     beta= 0.10
     Davidson diagonalization with overlap
     ethr =  1.00E-02,  avg # of iterations =  4.4
 --- enter write_ns ---
 LDA+U parameters:
U(  1) =   3.1200   J(  1) =   0.7000   B(  1) =   0.0803
U(  2) =   3.1200   J(  2) =   0.7000   B(  2) =   0.0803
atom    1   Tr[ns(na)] (up, down, total) =   5.01487  0.27404  5.28891
   spin  1
    eigenvalues: 
  1.003  1.003  1.003  1.003  1.004
    eigenvectors:
  0.001  0.000  0.000  0.998  0.001
  0.000  0.955  0.044  0.000  0.000
  0.001  0.044  0.955  0.000  0.000
  0.000  0.000  0.000  0.001  0.998
  0.999  0.000  0.000  0.001  0.000
    occupations:
  1.003  0.000  0.000  0.000  0.000
  0.000  1.003 -0.000  0.000  0.000
  0.000 -0.000  1.003  0.000  0.000
  0.000  0.000  0.000  1.004  0.000
  0.000  0.000  0.000  0.000  1.003
   spin  2
    eigenvalues: 
  0.040  0.052  0.054  0.056  0.072
    eigenvectors:
  0.006  0.906  0.046  0.041  0.000
  0.000  0.087  0.370  0.540  0.003
  0.000  0.001  0.583  0.411  0.005
  0.993  0.006  0.001  0.000  0.000
  0.000  0.000  0.000  0.008  0.992
    occupations:
  0.052  0.001  0.000 -0.001  0.000
  0.001  0.055  0.001 -0.000  0.001
  0.000  0.001  0.055  0.000  0.001
 -0.001 -0.000  0.000  0.040  0.000
  0.000  0.001  0.001  0.000  0.072
atomic mag. moment =     4.740823
atom    2   Tr[ns(na)] (up, down, total) =   5.01487  0.27174  5.28661
   spin  1
    eigenvalues: 
  1.003  1.003  1.003  1.003  1.004
    eigenvectors:
  0.000  0.000  0.001  0.996  0.003
  0.000  0.158  0.841  0.001  0.000
  0.002  0.841  0.157  0.000  0.000
  0.000  0.000  0.000  0.003  0.997
  0.998  0.001  0.001  0.000  0.000
    occupations:
  1.003 -0.000 -0.000 -0.000  0.000
 -0.000  1.003  0.000 -0.000 -0.000
 -0.000  0.000  1.003  0.000 -0.000
 -0.000 -0.000  0.000  1.004 -0.000
  0.000 -0.000 -0.000 -0.000  1.003
   spin  2
    eigenvalues: 
  0.040  0.049  0.054  0.055  0.073
    eigenvectors:
  0.012  0.963  0.007  0.018  0.000
  0.000  0.001  0.881  0.117  0.001
  0.000  0.025  0.110  0.865  0.000
  0.988  0.011  0.001  0.000  0.000
  0.000  0.000  0.001  0.000  0.999
    occupations:
  0.049 -0.000  0.001  0.001 -0.000
 -0.000  0.054  0.000 -0.000  0.000
  0.001  0.000  0.055  0.000 -0.000
  0.001 -0.000  0.000  0.040 -0.000
 -0.000  0.000 -0.000 -0.000  0.073
atomic mag. moment =     4.743134
atom    3   Tr[ns(na)] (up, down, total) =   0.27599  5.01487  5.29086
   spin  1
    eigenvalues: 
  0.042  0.054  0.054  0.055  0.071
    eigenvectors:
  0.005  0.926  0.005  0.064  0.000
  0.000  0.066  0.002  0.931  0.001
  0.000  0.003  0.987  0.003  0.007
  0.995  0.005  0.000  0.000  0.000
  0.000  0.000  0.007  0.001  0.992
    occupations:
  0.054  0.000 -0.000 -0.001 -0.000
  0.000  0.055  0.000 -0.000  0.001
 -0.000  0.000  0.055  0.000  0.001
 -0.001 -0.000  0.000  0.042  0.000
 -0.000  0.001  0.001  0.000  0.070
   spin  2
    eigenvalues: 
  1.003  1.003  1.003  1.003  1.004
    eigenvectors:
  0.000  0.001  0.001  0.978  0.020
  0.000  0.764  0.236  0.000  0.000
  0.001  0.235  0.763  0.002  0.000
  0.000  0.000  0.000  0.020  0.980
  0.999  0.000  0.001  0.000  0.000
    occupations:
  1.003 -0.000  0.000  0.000 -0.000
 -0.000  1.003  0.000  0.000 -0.000
  0.000  0.000  1.003  0.000  0.000
  0.000  0.000  0.000  1.004  0.000
 -0.000 -0.000  0.000  0.000  1.003
atomic mag. moment =    -4.738889
atom    4   Tr[ns(na)] (up, down, total) =   5.01473  0.27304  5.28777
   spin  1
    eigenvalues: 
  1.003  1.003  1.003  1.003  1.004
    eigenvectors:
  0.000  0.000  0.000  0.991  0.008
  0.000  0.826  0.174  0.000  0.000
  0.001  0.173  0.825  0.000  0.000
  0.000  0.000  0.000  0.008  0.991
  0.999  0.000  0.001  0.000  0.000
    occupations:
  1.003  0.000 -0.000  0.000 -0.000
  0.000  1.003  0.000  0.000  0.000
 -0.000  0.000  1.003 -0.000  0.000
  0.000  0.000 -0.000  1.004 -0.000
 -0.000  0.000  0.000 -0.000  1.003
   spin  2
    eigenvalues: 
  0.040  0.051  0.054  0.056  0.072
    eigenvectors:
  0.012  0.959  0.009  0.020  0.001
  0.000  0.029  0.314  0.657  0.000
  0.000  0.000  0.677  0.322  0.001
  0.988  0.012  0.000  0.000  0.000
  0.000  0.001  0.000  0.001  0.998
    occupations:
  0.051  0.001 -0.000 -0.001 -0.001
  0.001  0.055 -0.001  0.000 -0.000
 -0.000 -0.001  0.055 -0.000  0.000
 -0.001  0.000 -0.000  0.040  0.000
 -0.001 -0.000  0.000  0.000  0.072
atomic mag. moment =     4.741695
atom    5   Tr[ns(na)] (up, down, total) =   5.01473  0.27304  5.28777
   spin  1
    eigenvalues: 
  1.003  1.003  1.003  1.003  1.004
    eigenvectors:
  0.000  0.000  0.000  0.991  0.008
  0.000  0.826  0.174  0.000  0.000
  0.001  0.173  0.825  0.000  0.000
  0.000  0.000  0.000  0.008  0.991
  0.999  0.000  0.001  0.000  0.000
    occupations:
  1.003  0.000 -0.000  0.000 -0.000
  0.000  1.003  0.000  0.000  0.000
 -0.000  0.000  1.003 -0.000  0.000
  0.000  0.000 -0.000  1.004 -0.000
 -0.000  0.000  0.000 -0.000  1.003
   spin  2
    eigenvalues: 
  0.040  0.051  0.054  0.056  0.072
    eigenvectors:
  0.012  0.959  0.009  0.020  0.001
  0.000  0.029  0.314  0.657  0.000
  0.000  0.000  0.677  0.322  0.001
  0.988  0.012  0.000  0.000  0.000
  0.000  0.001  0.000  0.001  0.998
    occupations:
  0.051  0.001 -0.000 -0.001 -0.001
  0.001  0.055 -0.001  0.000 -0.000
 -0.000 -0.001  0.055 -0.000  0.000
 -0.001  0.000 -0.000  0.040  0.000
 -0.001 -0.000  0.000  0.000  0.072
atomic mag. moment =     4.741695
atom    6   Tr[ns(na)] (up, down, total) =   0.27599  5.01487  5.29086
   spin  1
    eigenvalues: 
  0.042  0.054  0.054  0.055  0.071
    eigenvectors:
  0.005  0.926  0.005  0.064  0.000
  0.000  0.066  0.002  0.931  0.001
  0.000  0.003  0.987  0.003  0.007
  0.995  0.005  0.000  0.000  0.000
  0.000  0.000  0.007  0.001  0.992
    occupations:
  0.054  0.000 -0.000 -0.001 -0.000
  0.000  0.055  0.000 -0.000  0.001
 -0.000  0.000  0.055  0.000  0.001
 -0.001 -0.000  0.000  0.042  0.000
 -0.000  0.001  0.001  0.000  0.070
   spin  2
    eigenvalues: 
  1.003  1.003  1.003  1.003  1.004
    eigenvectors:
  0.000  0.001  0.001  0.978  0.020
  0.000  0.764  0.236  0.000  0.000
  0.001  0.235  0.763  0.002  0.000
  0.000  0.000  0.000  0.020  0.980
  0.999  0.000  0.001  0.000  0.000
    occupations:
  1.003 -0.000  0.000  0.000 -0.000
 -0.000  1.003  0.000  0.000 -0.000
  0.000  0.000  1.003  0.000  0.000
  0.000  0.000  0.000  1.004  0.000
 -0.000 -0.000  0.000  0.000  1.003
atomic mag. moment =    -4.738889
atom    7   Tr[ns(na)] (up, down, total) =   5.01487  0.27404  5.28891
   spin  1
    eigenvalues: 
  1.003  1.003  1.003  1.003  1.004
    eigenvectors:
  0.001  0.000  0.000  0.998  0.001
  0.000  0.955  0.044  0.000  0.000
  0.001  0.044  0.955  0.000  0.000
  0.000  0.000  0.000  0.001  0.998
  0.999  0.000  0.000  0.001  0.000
    occupations:
  1.003  0.000  0.000  0.000  0.000
  0.000  1.003 -0.000  0.000  0.000
  0.000 -0.000  1.003  0.000  0.000
  0.000  0.000  0.000  1.004  0.000
  0.000  0.000  0.000  0.000  1.003
   spin  2
    eigenvalues: 
  0.040  0.052  0.054  0.056  0.072
    eigenvectors:
  0.006  0.906  0.046  0.041  0.000
  0.000  0.087  0.370  0.540  0.003
  0.000  0.001  0.583  0.411  0.005
  0.993  0.006  0.001  0.000  0.000
  0.000  0.000  0.000  0.008  0.992
    occupations:
  0.052  0.001  0.000 -0.001  0.000
  0.001  0.055  0.001 -0.000  0.001
  0.000  0.001  0.055  0.000  0.001
 -0.001 -0.000  0.000  0.040  0.000
  0.000  0.001  0.001  0.000  0.072
atomic mag. moment =     4.740823
atom    8   Tr[ns(na)] (up, down, total) =   5.01487  0.27174  5.28661
   spin  1
    eigenvalues: 
  1.003  1.003  1.003  1.003  1.004
    eigenvectors:
  0.000  0.000  0.001  0.996  0.003
  0.000  0.158  0.841  0.001  0.000
  0.002  0.841  0.157  0.000  0.000
  0.000  0.000  0.000  0.003  0.997
  0.998  0.001  0.001  0.000  0.000
    occupations:
  1.003 -0.000 -0.000 -0.000  0.000
 -0.000  1.003  0.000 -0.000 -0.000
 -0.000  0.000  1.003  0.000 -0.000
 -0.000 -0.000  0.000  1.004 -0.000
  0.000 -0.000 -0.000 -0.000  1.003
   spin  2
    eigenvalues: 
  0.040  0.049  0.054  0.055  0.073
    eigenvectors:
  0.012  0.963  0.007  0.018  0.000
  0.000  0.001  0.881  0.117  0.001
  0.000  0.025  0.110  0.865  0.000
  0.988  0.011  0.001  0.000  0.000
  0.000  0.000  0.001  0.000  0.999
    occupations:
  0.049 -0.000  0.001  0.001 -0.000
 -0.000  0.054  0.000 -0.000  0.000
  0.001  0.000  0.055  0.000 -0.000
  0.001 -0.000  0.000  0.040 -0.000
 -0.000  0.000 -0.000 -0.000  0.073
atomic mag. moment =     4.743134
N of occupied +U levels =   42.308314
 --- exit write_ns ---

     total cpu time spent up to now is      114.8 secs

     total energy              =  -14679.17097991 Ry
     Harris-Foulkes estimate   =  -14669.79066515 Ry
     estimated scf accuracy    <      21.28015894 Ry

     total magnetization       =    20.96 Bohr mag/cell
     absolute magnetization    =    43.58 Bohr mag/cell

     iteration #  2     ecut=    45.00 Ry     beta= 0.10
     Davidson diagonalization with overlap
     ethr =  7.19E-03,  avg # of iterations =  1.0

     total cpu time spent up to now is      160.2 secs

     total energy              =  -14692.16332030 Ry
     Harris-Foulkes estimate   =  -14679.27536811 Ry
     estimated scf accuracy    <      17.17247482 Ry

     total magnetization       =    20.66 Bohr mag/cell
     absolute magnetization    =    43.13 Bohr mag/cell

     iteration #  3     ecut=    45.00 Ry     beta= 0.10
     Davidson diagonalization with overlap
     ethr =  5.80E-03,  avg # of iterations =  2.1

     total cpu time spent up to now is      214.7 secs

     total energy              =  -14693.84436175 Ry
     Harris-Foulkes estimate   =  -14693.79046504 Ry
     estimated scf accuracy    <       4.07642513 Ry

     total magnetization       =    18.64 Bohr mag/cell
     absolute magnetization    =    39.18 Bohr mag/cell

     iteration #  4     ecut=    45.00 Ry     beta= 0.10
     Davidson diagonalization with overlap
     ethr =  1.38E-03,  avg # of iterations =  5.0

     total cpu time spent up to now is      290.6 secs

     total energy              =  -14693.55740621 Ry
     Harris-Foulkes estimate   =  -14693.88828332 Ry
     estimated scf accuracy    <       4.30206646 Ry

     total magnetization       =    18.56 Bohr mag/cell
     absolute magnetization    =    38.96 Bohr mag/cell

     iteration #  5     ecut=    45.00 Ry     beta= 0.10
     Davidson diagonalization with overlap
     ethr =  1.38E-03,  avg # of iterations =  5.5

     total cpu time spent up to now is      374.1 secs

     total energy              =  -14693.78759350 Ry
     Harris-Foulkes estimate   =  -14693.81089758 Ry
     estimated scf accuracy    <       0.62452735 Ry

     total magnetization       =    18.16 Bohr mag/cell
     absolute magnetization    =    38.42 Bohr mag/cell

     iteration #  6     ecut=    45.00 Ry     beta= 0.10
     Davidson diagonalization with overlap
     ethr =  2.11E-04,  avg # of iterations =  4.0

     total cpu time spent up to now is      468.6 secs

     total energy              =  -14693.99084432 Ry
     Harris-Foulkes estimate   =  -14693.96033323 Ry
     estimated scf accuracy    <       0.36661209 Ry

     total magnetization       =    17.07 Bohr mag/cell
     absolute magnetization    =    37.06 Bohr mag/cell

     iteration #  7     ecut=    45.00 Ry     beta= 0.10
     Davidson diagonalization with overlap
     ethr =  1.24E-04,  avg # of iterations =  1.0

     total cpu time spent up to now is      514.3 secs

     total energy              =  -14693.96439920 Ry
     Harris-Foulkes estimate   =  -14694.00214980 Ry
     estimated scf accuracy    <       0.76720954 Ry

     total magnetization       =    16.87 Bohr mag/cell
     absolute magnetization    =    36.96 Bohr mag/cell

     iteration #  8     ecut=    45.00 Ry     beta= 0.10
     Davidson diagonalization with overlap
     ethr =  1.24E-04,  avg # of iterations =  1.0

     total cpu time spent up to now is      559.7 secs

     total energy              =  -14693.94640186 Ry
     Harris-Foulkes estimate   =  -14693.97002324 Ry
     estimated scf accuracy    <       0.46533880 Ry

     total magnetization       =    17.03 Bohr mag/cell
     absolute magnetization    =    37.06 Bohr mag/cell

     iteration #  9     ecut=    45.00 Ry     beta= 0.10
     Davidson diagonalization with overlap
     ethr =  1.24E-04,  avg # of iterations =  1.1

     total cpu time spent up to now is      605.7 secs

     total energy              =  -14693.94484860 Ry
     Harris-Foulkes estimate   =  -14693.95613573 Ry
     estimated scf accuracy    <       0.18385544 Ry

     total magnetization       =    17.09 Bohr mag/cell
     absolute magnetization    =    37.01 Bohr mag/cell

     iteration # 10     ecut=    45.00 Ry     beta= 0.10
     Davidson diagonalization with overlap
     ethr =  6.21E-05,  avg # of iterations =  1.0

     total cpu time spent up to now is      651.4 secs

     total energy              =  -14693.94237571 Ry
     Harris-Foulkes estimate   =  -14693.94949878 Ry
     estimated scf accuracy    <       0.06570323 Ry

     total magnetization       =    17.09 Bohr mag/cell
     absolute magnetization    =    36.98 Bohr mag/cell

     iteration # 11     ecut=    45.00 Ry     beta= 0.10
     Davidson diagonalization with overlap
     ethr =  2.22E-05,  avg # of iterations =  3.1

     total cpu time spent up to now is      716.7 secs

     total energy              =  -14693.95012152 Ry
     Harris-Foulkes estimate   =  -14693.95019623 Ry
     estimated scf accuracy    <       0.00337909 Ry

     total magnetization       =    17.07 Bohr mag/cell
     absolute magnetization    =    36.90 Bohr mag/cell

     iteration # 12     ecut=    45.00 Ry     beta= 0.10
     Davidson diagonalization with overlap
     c_bands:  1 eigenvalues not converged
     ethr =  1.14E-06,  avg # of iterations =  3.6

     total cpu time spent up to now is      782.9 secs

     total energy              =  -14693.95165972 Ry
     Harris-Foulkes estimate   =  -14693.95033000 Ry
     estimated scf accuracy    <       0.00318411 Ry

     total magnetization       =    17.05 Bohr mag/cell
     absolute magnetization    =    36.89 Bohr mag/cell

     iteration # 13     ecut=    45.00 Ry     beta= 0.10
     Davidson diagonalization with overlap
     ethr =  1.08E-06,  avg # of iterations =  1.6

     total cpu time spent up to now is      832.2 secs

     total energy              =  -14693.95190363 Ry
     Harris-Foulkes estimate   =  -14693.95187950 Ry
     estimated scf accuracy    <       0.00180168 Ry

     total magnetization       =    16.99 Bohr mag/cell
     absolute magnetization    =    36.84 Bohr mag/cell

     iteration # 14     ecut=    45.00 Ry     beta= 0.10
     Davidson diagonalization with overlap
     ethr =  6.09E-07,  avg # of iterations =  2.8

     total cpu time spent up to now is      898.4 secs

     total energy              =  -14693.95232270 Ry
     Harris-Foulkes estimate   =  -14693.95227677 Ry
     estimated scf accuracy    <       0.00017587 Ry

     total magnetization       =    16.97 Bohr mag/cell
     absolute magnetization    =    36.82 Bohr mag/cell

     iteration # 15     ecut=    45.00 Ry     beta= 0.10
     Davidson diagonalization with overlap
     ethr =  5.94E-08,  avg # of iterations =  3.0

     total cpu time spent up to now is      966.6 secs

     total energy              =  -14693.95235942 Ry
     Harris-Foulkes estimate   =  -14693.95235961 Ry
     estimated scf accuracy    <       0.00006897 Ry

     total magnetization       =    16.94 Bohr mag/cell
     absolute magnetization    =    36.80 Bohr mag/cell

     iteration # 16     ecut=    45.00 Ry     beta= 0.10
     Davidson diagonalization with overlap
     ethr =  2.33E-08,  avg # of iterations =  2.0

     total cpu time spent up to now is     1020.0 secs

     total energy              =  -14693.95238832 Ry
     Harris-Foulkes estimate   =  -14693.95237356 Ry
     estimated scf accuracy    <       0.00002086 Ry

     total magnetization       =    16.94 Bohr mag/cell
     absolute magnetization    =    36.80 Bohr mag/cell

     iteration # 17     ecut=    45.00 Ry     beta= 0.10
     Davidson diagonalization with overlap
     ethr =  7.05E-09,  avg # of iterations =  2.3

     total cpu time spent up to now is     1076.4 secs

     total energy              =  -14693.95239241 Ry
     Harris-Foulkes estimate   =  -14693.95238941 Ry
     estimated scf accuracy    <       0.00001845 Ry

     total magnetization       =    16.93 Bohr mag/cell
     absolute magnetization    =    36.79 Bohr mag/cell

     iteration # 18     ecut=    45.00 Ry     beta= 0.10
     Davidson diagonalization with overlap
     ethr =  6.23E-09,  avg # of iterations =  2.3

     total cpu time spent up to now is     1130.5 secs

     total energy              =  -14693.95240441 Ry
     Harris-Foulkes estimate   =  -14693.95239838 Ry
     estimated scf accuracy    <       0.00000438 Ry

     total magnetization       =    16.93 Bohr mag/cell
     absolute magnetization    =    36.79 Bohr mag/cell

     iteration # 19     ecut=    45.00 Ry     beta= 0.10
     Davidson diagonalization with overlap
     ethr =  1.48E-09,  avg # of iterations =  3.2

     total cpu time spent up to now is     1196.2 secs

     total energy              =  -14693.95240907 Ry
     Harris-Foulkes estimate   =  -14693.95240560 Ry
     estimated scf accuracy    <       0.00000149 Ry

     total magnetization       =    16.93 Bohr mag/cell
     absolute magnetization    =    36.79 Bohr mag/cell

     iteration # 20     ecut=    45.00 Ry     beta= 0.10
     Davidson diagonalization with overlap
     ethr =  5.03E-10,  avg # of iterations =  2.3
 
     Magnetic moment per site:
     atom:    1    charge:   13.5449    magn:    4.2002    constr:    0.0000
     atom:    2    charge:   13.5465    magn:    4.1795    constr:    0.0000
     atom:    3    charge:   13.5316    magn:   -4.2774    constr:    0.0000
     atom:    4    charge:   13.5448    magn:    4.1908    constr:    0.0000
     atom:    5    charge:   13.5448    magn:    4.1908    constr:    0.0000
     atom:    6    charge:   13.5316    magn:   -4.2774    constr:    0.0000
     atom:    7    charge:   13.5449    magn:    4.2002    constr:    0.0000
     atom:    8    charge:   13.5465    magn:    4.1795    constr:    0.0000
     atom:    9    charge:    9.0904    magn:    0.0161    constr:    0.0000
     atom:   10    charge:    9.0905    magn:   -0.0206    constr:    0.0000
     atom:   11    charge:    9.0911    magn:   -0.0042    constr:    0.0000
     atom:   12    charge:    9.0888    magn:    0.0125    constr:    0.0000
     atom:   13    charge:    9.0893    magn:    0.0392    constr:    0.0000
     atom:   14    charge:    9.0909    magn:    0.0174    constr:    0.0000
     atom:   15    charge:    9.0905    magn:    0.0424    constr:    0.0000
     atom:   16    charge:    9.0906    magn:   -0.0014    constr:    0.0000
     atom:   17    charge:    9.0911    magn:   -0.0042    constr:    0.0000
     atom:   18    charge:    9.0888    magn:    0.0125    constr:    0.0000
     atom:   19    charge:    9.0905    magn:   -0.0206    constr:    0.0000
     atom:   20    charge:    9.0904    magn:    0.0161    constr:    0.0000
     atom:   21    charge:    9.0905    magn:    0.0424    constr:    0.0000
     atom:   22    charge:    9.0906    magn:   -0.0014    constr:    0.0000
     atom:   23    charge:    9.0909    magn:    0.0174    constr:    0.0000
     atom:   24    charge:    9.0893    magn:    0.0392    constr:    0.0000

     total cpu time spent up to now is     1250.7 secs

     End of self-consistent calculation
 --- enter write_ns ---
 LDA+U parameters:
U(  1) =   3.1200   J(  1) =   0.7000   B(  1) =   0.0803
U(  2) =   3.1200   J(  2) =   0.7000   B(  2) =   0.0803
atom    1   Tr[ns(na)] (up, down, total) =   4.96707  0.76694  5.73401
   spin  1
    eigenvalues: 
  0.983  0.992  0.994  0.996  1.002
    eigenvectors:
  0.000  0.028  0.005  0.965  0.002
  0.003  0.536  0.431  0.029  0.001
  0.007  0.427  0.563  0.003  0.000
  0.000  0.000  0.000  0.003  0.996
  0.990  0.010  0.000  0.000  0.000
    occupations:
  0.996 -0.001 -0.000  0.000  0.000
 -0.001  0.993 -0.001 -0.000  0.000
 -0.000 -0.001  0.993 -0.000  0.001
  0.000 -0.000 -0.000  1.002  0.000
  0.000  0.000  0.001  0.000  0.984
   spin  2
    eigenvalues: 
  0.067  0.124  0.151  0.158  0.266
    eigenvectors:
  0.000  0.952  0.030  0.017  0.001
  0.000  0.014  0.864  0.121  0.001
  0.000  0.031  0.103  0.853  0.013
  1.000  0.000  0.000  0.000  0.000
  0.000  0.003  0.003  0.009  0.986
    occupations:
  0.126 -0.003 -0.005 -0.000  0.005
 -0.003  0.151 -0.003 -0.000  0.003
 -0.005 -0.003  0.158 -0.001  0.013
 -0.000 -0.000 -0.001  0.067  0.000
  0.005  0.003  0.013  0.000  0.265
atomic mag. moment =     4.200130
atom    2   Tr[ns(na)] (up, down, total) =   4.96412  0.78360  5.74772
   spin  1
    eigenvalues: 
  0.982  0.992  0.992  0.996  1.001
    eigenvectors:
  0.000  0.003  0.015  0.979  0.003
  0.000  0.494  0.489  0.016  0.001
  0.001  0.502  0.494  0.002  0.000
  0.000  0.000  0.001  0.003  0.996
  0.999  0.000  0.001  0.000  0.000
    occupations:
  0.996  0.001  0.000 -0.000  0.000
  0.001  0.992  0.000  0.000 -0.000
  0.000  0.000  0.992  0.000 -0.000
 -0.000  0.000  0.000  1.001 -0.000
  0.000 -0.000 -0.000 -0.000  0.982
   spin  2
    eigenvalues: 
  0.067  0.145  0.147  0.157  0.267
    eigenvectors:
  0.000  0.022  0.936  0.041  0.001
  0.000  0.088  0.057  0.854  0.001
  0.000  0.883  0.005  0.104  0.007
  0.999  0.000  0.000  0.000  0.000
  0.000  0.007  0.002  0.000  0.991
    occupations:
  0.148  0.002  0.001 -0.000 -0.004
  0.002  0.156  0.003  0.002  0.004
  0.001  0.003  0.147  0.000 -0.010
 -0.000  0.002  0.000  0.067  0.001
 -0.004  0.004 -0.010  0.001  0.266
atomic mag. moment =     4.180514
atom    3   Tr[ns(na)] (up, down, total) =   0.70615  4.97261  5.67876
   spin  1
    eigenvalues: 
  0.072  0.123  0.138  0.145  0.228
    eigenvectors:
  0.000  0.985  0.012  0.001  0.001
  0.002  0.006  0.189  0.795  0.009
  0.000  0.008  0.713  0.200  0.078
  0.998  0.000  0.000  0.002  0.000
  0.000  0.000  0.086  0.002  0.912
    occupations:
  0.124  0.002  0.002  0.001  0.003
  0.002  0.144 -0.001 -0.003  0.008
  0.002 -0.001  0.146  0.001  0.024
  0.001 -0.003  0.001  0.072 -0.001
  0.003  0.008  0.024 -0.001  0.220
   spin  2
    eigenvalues: 
  0.987  0.993  0.994  0.998  1.002
    eigenvectors:
  0.000  0.011  0.046  0.939  0.004
  0.000  0.600  0.353  0.046  0.001
  0.003  0.386  0.600  0.011  0.000
  0.000  0.000  0.000  0.004  0.995
  0.997  0.002  0.001  0.000  0.000
    occupations:
  0.998 -0.001 -0.000  0.000 -0.000
 -0.001  0.993  0.001 -0.000  0.000
 -0.000  0.001  0.993 -0.000 -0.000
  0.000 -0.000 -0.000  1.002  0.000
 -0.000  0.000 -0.000  0.000  0.987
atomic mag. moment =    -4.266461
atom    4   Tr[ns(na)] (up, down, total) =   4.96534  0.77236  5.73770
   spin  1
    eigenvalues: 
  0.983  0.991  0.993  0.997  1.002
    eigenvectors:
  0.001  0.002  0.028  0.965  0.003
  0.001  0.480  0.510  0.008  0.001
  0.002  0.515  0.460  0.023  0.000
  0.000  0.000  0.001  0.003  0.996
  0.996  0.003  0.000  0.001  0.000
    occupations:
  0.997  0.000  0.001  0.000  0.000
  0.000  0.992  0.001 -0.000 -0.000
  0.001  0.001  0.992 -0.000  0.000
  0.000 -0.000 -0.000  1.002  0.000
  0.000 -0.000  0.000  0.000  0.983
   spin  2
    eigenvalues: 
  0.067  0.140  0.147  0.160  0.259
    eigenvectors:
  0.000  0.894  0.066  0.029  0.011
  0.001  0.026  0.779  0.194  0.000
  0.000  0.064  0.154  0.772  0.009
  0.999  0.000  0.001  0.000  0.000
  0.000  0.015  0.000  0.005  0.980
    occupations:
  0.142 -0.000  0.002  0.000 -0.013
 -0.000  0.149  0.005 -0.002  0.001
  0.002  0.005  0.157  0.001  0.010
  0.000 -0.002  0.001  0.067 -0.001
 -0.013  0.001  0.010 -0.001  0.257
atomic mag. moment =     4.192983
atom    5   Tr[ns(na)] (up, down, total) =   4.96534  0.77236  5.73770
   spin  1
    eigenvalues: 
  0.983  0.991  0.993  0.997  1.002
    eigenvectors:
  0.001  0.002  0.028  0.965  0.003
  0.001  0.480  0.510  0.008  0.001
  0.002  0.515  0.460  0.023  0.000
  0.000  0.000  0.001  0.003  0.996
  0.996  0.003  0.000  0.001  0.000
    occupations:
  0.997  0.000  0.001  0.000  0.000
  0.000  0.992  0.001 -0.000 -0.000
  0.001  0.001  0.992 -0.000  0.000
  0.000 -0.000 -0.000  1.002  0.000
  0.000 -0.000  0.000  0.000  0.983
   spin  2
    eigenvalues: 
  0.067  0.140  0.147  0.160  0.259
    eigenvectors:
  0.000  0.894  0.066  0.029  0.011
  0.001  0.026  0.779  0.194  0.000
  0.000  0.064  0.154  0.772  0.009
  0.999  0.000  0.001  0.000  0.000
  0.000  0.015  0.000  0.005  0.980
    occupations:
  0.142 -0.000  0.002  0.000 -0.013
 -0.000  0.149  0.005 -0.002  0.001
  0.002  0.005  0.157  0.001  0.010
  0.000 -0.002  0.001  0.067 -0.001
 -0.013  0.001  0.010 -0.001  0.257
atomic mag. moment =     4.192983
atom    6   Tr[ns(na)] (up, down, total) =   0.70615  4.97261  5.67876
   spin  1
    eigenvalues: 
  0.072  0.123  0.138  0.145  0.228
    eigenvectors:
  0.000  0.985  0.012  0.001  0.001
  0.002  0.006  0.189  0.795  0.009
  0.000  0.008  0.713  0.200  0.078
  0.998  0.000  0.000  0.002  0.000
  0.000  0.000  0.086  0.002  0.912
    occupations:
  0.124  0.002  0.002  0.001  0.003
  0.002  0.144 -0.001 -0.003  0.008
  0.002 -0.001  0.146  0.001  0.024
  0.001 -0.003  0.001  0.072 -0.001
  0.003  0.008  0.024 -0.001  0.220
   spin  2
    eigenvalues: 
  0.987  0.993  0.994  0.998  1.002
    eigenvectors:
  0.000  0.011  0.046  0.939  0.004
  0.000  0.600  0.353  0.046  0.001
  0.003  0.386  0.600  0.011  0.000
  0.000  0.000  0.000  0.004  0.995
  0.997  0.002  0.001  0.000  0.000
    occupations:
  0.998 -0.001 -0.000  0.000 -0.000
 -0.001  0.993  0.001 -0.000  0.000
 -0.000  0.001  0.993 -0.000 -0.000
  0.000 -0.000 -0.000  1.002  0.000
 -0.000  0.000 -0.000  0.000  0.987
atomic mag. moment =    -4.266461
atom    7   Tr[ns(na)] (up, down, total) =   4.96707  0.76694  5.73401
   spin  1
    eigenvalues: 
  0.983  0.992  0.994  0.996  1.002
    eigenvectors:
  0.000  0.028  0.005  0.965  0.002
  0.003  0.536  0.431  0.029  0.001
  0.007  0.427  0.563  0.003  0.000
  0.000  0.000  0.000  0.003  0.996
  0.990  0.010  0.000  0.000  0.000
    occupations:
  0.996 -0.001 -0.000  0.000  0.000
 -0.001  0.993 -0.001 -0.000  0.000
 -0.000 -0.001  0.993 -0.000  0.001
  0.000 -0.000 -0.000  1.002  0.000
  0.000  0.000  0.001  0.000  0.984
   spin  2
    eigenvalues: 
  0.067  0.124  0.151  0.158  0.266
    eigenvectors:
  0.000  0.952  0.030  0.017  0.001
  0.000  0.014  0.864  0.121  0.001
  0.000  0.031  0.103  0.853  0.013
  1.000  0.000  0.000  0.000  0.000
  0.000  0.003  0.003  0.009  0.986
    occupations:
  0.126 -0.003 -0.005 -0.000  0.005
 -0.003  0.151 -0.003 -0.000  0.003
 -0.005 -0.003  0.158 -0.001  0.013
 -0.000 -0.000 -0.001  0.067  0.000
  0.005  0.003  0.013  0.000  0.265
atomic mag. moment =     4.200130
atom    8   Tr[ns(na)] (up, down, total) =   4.96412  0.78360  5.74772
   spin  1
    eigenvalues: 
  0.982  0.992  0.992  0.996  1.001
    eigenvectors:
  0.000  0.003  0.015  0.979  0.003
  0.000  0.494  0.489  0.016  0.001
  0.001  0.502  0.494  0.002  0.000
  0.000  0.000  0.001  0.003  0.996
  0.999  0.000  0.001  0.000  0.000
    occupations:
  0.996  0.001  0.000 -0.000  0.000
  0.001  0.992  0.000  0.000 -0.000
  0.000  0.000  0.992  0.000 -0.000
 -0.000  0.000  0.000  1.001 -0.000
  0.000 -0.000 -0.000 -0.000  0.982
   spin  2
    eigenvalues: 
  0.067  0.145  0.147  0.157  0.267
    eigenvectors:
  0.000  0.022  0.936  0.041  0.001
  0.000  0.088  0.057  0.854  0.001
  0.000  0.883  0.005  0.104  0.007
  0.999  0.000  0.000  0.000  0.000
  0.000  0.007  0.002  0.000  0.991
    occupations:
  0.148  0.002  0.001 -0.000 -0.004
  0.002  0.156  0.003  0.002  0.004
  0.001  0.003  0.147  0.000 -0.010
 -0.000  0.002  0.000  0.067  0.001
 -0.004  0.004 -0.010  0.001  0.266
atomic mag. moment =     4.180514
N of occupied +U levels =   45.796363
 --- exit write_ns ---

 ------ SPIN UP ------------


          k = 0.0000 0.0000 0.0000 ( 13629 PWs)   bands (ev):

   -66.3623 -66.3620 -66.3496 -66.3494 -66.3197 -66.3193 -61.9332 -61.9327
   -35.1464 -35.1460 -35.1169 -35.1165 -35.1028 -35.1006 -35.0953 -35.0935
   -35.0878 -35.0877 -35.0736 -35.0697 -35.0617 -35.0570 -35.0561 -35.0523
   -35.0362 -35.0353 -30.7628 -30.7625 -30.7593 -30.7585 -30.7564 -30.7507
     5.9275   7.5522   7.5599   8.0831   8.0883   8.2700   8.3858   8.3886
     8.6988   8.6995   9.0368   9.0381   9.3321   9.3518   9.3617   9.3684
     9.4150   9.4151   9.4602   9.5346   9.5616   9.5663   9.5884   9.5944
     9.6239   9.6333   9.6529   9.7005   9.7103   9.8288   9.8563   9.9379
     9.9396   9.9439   9.9481   9.9979  10.0146  10.0499  10.0698  10.1263
    10.2047  10.2267  10.2549  10.2570  10.2898  10.3003  10.3247  10.4295
    10.4315  10.4601  10.4672  10.4939  10.4940  10.5279  10.5389  10.6359
    10.6365  10.6524  10.7002  10.7747  10.7993  10.8570  11.0234  11.0634
    11.0795  11.1363  11.1554  11.3210  11.3223  11.3337  11.3847  11.4472
    11.5928  11.6573  11.7053  11.7918  11.8113  11.8116  11.8214  11.8312
    11.8386  11.8936  11.9256  11.9262  11.9954  12.0381  12.1190  12.1764
    12.2490  12.2538  12.2710  12.2732  12.3454  12.3482  12.3559  12.4205
    12.4603  12.4922  12.5045  12.5112  12.5171  12.5920  12.6084  12.6692
    12.6745  12.6897  12.6958  12.7742  12.9019  12.9511  12.9587  12.9839
    13.2183  13.2542  13.2549  13.2711  13.2836  13.3063  13.3802  14.0977
    15.0408  15.0415  15.1911  15.4346  15.9931  16.3378  16.6500  16.8219
    16.9897  17.0589  17.2029  17.2341  17.4472  17.6850  17.8115  18.1640
    18.1826  18.2328  19.0460  19.0568  19.1069  19.1288  19.3423  19.3986
    19.4112  19.4663

          k = 0.0000 0.0000-0.5441 ( 13704 PWs)   bands (ev):

   -66.3623 -66.3620 -66.3497 -66.3494 -66.3197 -66.3193 -61.9332 -61.9327
   -35.1464 -35.1460 -35.1169 -35.1166 -35.1028 -35.1007 -35.0954 -35.0935
   -35.0878 -35.0877 -35.0736 -35.0697 -35.0617 -35.0570 -35.0560 -35.0523
   -35.0361 -35.0353 -30.7628 -30.7625 -30.7593 -30.7586 -30.7565 -30.7507
     6.5188   7.5577   8.0816   8.0859   8.4114   8.4185   8.6511   8.6648
     8.6806   8.7908   8.8569   8.8687   8.9306   8.9816   9.0192   9.0602
     9.0630   9.0847   9.1593   9.3787   9.5425   9.5693   9.5934   9.6212
     9.6281   9.6349   9.6460   9.6641   9.6973   9.7025   9.7264   9.7537
     9.7588   9.8233   9.8638   9.9085   9.9416   9.9573   9.9775  10.0345
    10.0469  10.1993  10.2077  10.2377  10.2984  10.3619  10.3932  10.4013
    10.4883  10.4929  10.5571  10.5731  10.5820  10.5939  10.6298  10.6996
    10.7330  10.7597  10.9001  10.9158  10.9327  11.0514  11.1842  11.2295
    11.2443  11.3671  11.4472  11.5370  11.5536  11.5832  11.6093  11.6117
    11.6412  11.7172  11.7346  11.8216  11.8338  11.8625  11.8756  11.8891
    11.9020  11.9180  11.9420  11.9872  11.9968  12.0265  12.0669  12.0913
    12.1244  12.1630  12.1869  12.1974  12.2544  12.2661  12.2844  12.3307
    12.3451  12.3508  12.4354  12.4869  12.5896  12.5933  12.6347  12.6538
    12.6742  12.7444  12.8065  12.8367  12.8631  12.9165  12.9607  13.0628
    13.1211  13.1447  13.2057  13.2552  13.5702  13.6435  14.0455  14.1152
    14.1354  14.1526  14.4386  15.2515  15.4194  15.8446  15.9890  16.0752
    16.9274  17.0505  17.1214  17.2384  17.4007  17.4681  17.4946  17.6657
    17.7425  18.0246  18.1106  18.5056  18.9730  19.0552  19.1133  19.1676
    19.1743  19.4504

          k = 0.0000 0.0000 1.0883 ( 13706 PWs)   bands (ev):

   -66.3623 -66.3620 -66.3497 -66.3493 -66.3198 -66.3193 -61.9332 -61.9327
   -35.1465 -35.1460 -35.1169 -35.1166 -35.1028 -35.1007 -35.0954 -35.0935
   -35.0879 -35.0877 -35.0736 -35.0697 -35.0617 -35.0570 -35.0560 -35.0523
   -35.0361 -35.0353 -30.7627 -30.7625 -30.7593 -30.7586 -30.7565 -30.7507
     7.7846   8.0707   8.0796   8.2776   8.3361   8.3784   8.4504   8.5920
     8.6455   8.6985   8.6994   8.8156   8.8488   8.9112   8.9132   9.0652
     9.1041   9.1315   9.1330   9.3930   9.4098   9.4116   9.4236   9.4549
     9.5584   9.5732   9.5933   9.6608   9.6673   9.7572   9.7579   9.8141
     9.8172   9.8965   9.9062   9.9446   9.9454  10.0012  10.0277  10.0281
    10.0432  10.0951  10.2107  10.2121  10.2233  10.2552  10.2553  10.2586
    10.2881  10.3665  10.3683  10.3771  10.4078  10.4581  10.5129  10.5534
    10.5938  10.6175  10.6524  10.7061  10.9140  10.9144  10.9700  11.1562
    11.2024  11.2540  11.3506  11.4393  11.4750  11.4916  11.5647  11.6068
    11.7189  11.7225  11.7371  11.8102  11.8108  11.8503  11.9521  11.9727
    11.9816  12.0018  12.1121  12.1333  12.1556  12.1560  12.1653  12.2586
    12.3145  12.3453  12.3480  12.3896  12.4164  12.4310  12.5039  12.5436
    12.5469  12.6800  12.6815  12.6970  12.7019  12.7217  12.7342  12.7668
    12.7855  12.9477  13.0799  13.0900  13.1012  13.1142  13.1357  13.2546
    13.2561  13.2562  13.3066  13.3220  13.3912  13.4163  13.5771  13.6488
    13.6736  13.7178  14.0995  15.0406  15.0408  15.2885  15.5285  16.0702
    16.6287  16.9673  17.0649  17.1950  17.2275  17.3938  17.5149  17.6015
    17.7098  18.0051  18.0311  18.1282  18.1643  18.9489  18.9543  19.0337
    19.1390  19.1460

          k =-0.1768-0.1768-0.1360 ( 13673 PWs)   bands (ev):

   -66.3623 -66.3620 -66.3496 -66.3494 -66.3197 -66.3193 -61.9332 -61.9327
   -35.1464 -35.1460 -35.1169 -35.1165 -35.1028 -35.1007 -35.0953 -35.0935
   -35.0878 -35.0877 -35.0736 -35.0698 -35.0616 -35.0573 -35.0556 -35.0525
   -35.0361 -35.0353 -30.7628 -30.7625 -30.7593 -30.7585 -30.7564 -30.7507
     6.0896   7.2614   7.6934   7.6998   8.3558   8.4182   8.4467   8.5968
     8.6053   8.7727   9.0887   9.1496   9.1891   9.2445   9.2794   9.2888
     9.2989   9.3968   9.4249   9.4443   9.4689   9.4900   9.5123   9.5631
     9.5768   9.6183   9.6505   9.6639   9.7893   9.8588   9.8748   9.9388
     9.9648   9.9837  10.0191  10.0543  10.0591  10.0756  10.1293  10.1441
    10.2101  10.2327  10.2462  10.2862  10.3003  10.3724  10.3881  10.4207
    10.4484  10.4626  10.5136  10.5393  10.5971  10.6034  10.6478  10.6584
    10.6892  10.7030  10.7273  10.8257  10.9221  10.9506  10.9734  10.9925
    11.0113  11.0820  11.1333  11.2497  11.2822  11.3500  11.3824  11.4000
    11.5028  11.6443  11.6563  11.6828  11.7142  11.7209  11.7518  11.7808
    11.8200  11.8469  11.8614  11.9124  11.9481  11.9524  11.9728  12.0373
    12.0955  12.1428  12.1935  12.2153  12.2371  12.2585  12.3007  12.3120
    12.3341  12.3433  12.3622  12.4452  12.5544  12.5755  12.6067  12.7021
    12.7550  12.8034  12.8231  12.8645  12.8724  12.9131  12.9364  12.9889
    13.0202  13.1444  13.1719  13.2135  13.5304  14.2813  14.3274  14.7224
    15.0906  15.4609  15.5463  15.6860  15.8369  16.2800  16.4614  16.7052
    16.7688  17.0458  17.1249  17.2138  17.3109  17.4898  17.6654  17.7251
    18.0389  18.1025  18.5710  18.6216  18.6918  18.7202  18.8139  19.0211
    19.0445  19.7119

          k =-0.1768-0.1768-0.6802 ( 13666 PWs)   bands (ev):

   -66.3623 -66.3620 -66.3497 -66.3493 -66.3197 -66.3193 -61.9332 -61.9327
   -35.1465 -35.1460 -35.1169 -35.1166 -35.1028 -35.1007 -35.0953 -35.0935
   -35.0878 -35.0877 -35.0736 -35.0698 -35.0617 -35.0573 -35.0556 -35.0525
   -35.0361 -35.0353 -30.7628 -30.7625 -30.7593 -30.7586 -30.7565 -30.7507
     6.9328   6.9952   8.3025   8.3043   8.3661   8.3692   8.5391   8.7146
     8.7372   8.7833   8.8426   8.8489   8.8847   8.9342   9.0428   9.0547
     9.0944   9.3088   9.3238   9.3735   9.4122   9.4448   9.4930   9.5338
     9.5919   9.6006   9.6387   9.6527   9.6600   9.6680   9.7436   9.7578
     9.7889   9.8015   9.8404   9.9035   9.9242   9.9293   9.9596  10.0327
    10.2737  10.2789  10.3009  10.3314  10.3338  10.3655  10.3877  10.4363
    10.4804  10.4945  10.5310  10.5834  10.6054  10.6571  10.7228  10.7409
    10.7552  10.8154  10.8850  10.9333  10.9869  11.0359  11.0693  11.0881
    11.1562  11.1977  11.2646  11.3673  11.3723  11.4018  11.4530  11.5263
    11.6169  11.6327  11.6842  11.6907  11.7341  11.7478  11.7641  11.8300
    11.8746  11.9289  11.9482  11.9562  11.9817  11.9986  12.0252  12.0603
    12.0807  12.1000  12.1821  12.2074  12.2350  12.2900  12.3066  12.3103
    12.3527  12.3628  12.4340  12.4762  12.5405  12.5574  12.6018  12.6641
    12.7133  12.7438  12.7984  12.8504  12.9123  12.9859  13.0089  13.1037
    13.1400  13.1670  13.2443  13.2882  13.8540  14.0476  14.2953  14.6974
    14.8225  14.9176  15.0642  15.1379  15.5266  15.5797  16.2388  16.4144
    16.4611  16.5824  16.6921  16.8158  17.1414  17.3514  17.4579  17.5293
    17.7882  17.8424  17.9829  18.1422  18.1863  18.4638  18.8465  19.0682
    20.0021  20.3988

          k =-0.1768-0.1768 0.9522 ( 13713 PWs)   bands (ev):

   -66.3624 -66.3620 -66.3497 -66.3493 -66.3197 -66.3193 -61.9332 -61.9327
   -35.1465 -35.1460 -35.1169 -35.1166 -35.1028 -35.1007 -35.0953 -35.0935
   -35.0879 -35.0877 -35.0736 -35.0698 -35.0617 -35.0573 -35.0556 -35.0525
   -35.0361 -35.0353 -30.7627 -30.7625 -30.7593 -30.7586 -30.7565 -30.7507
     7.6342   7.7526   8.2507   8.3690   8.4159   8.4378   8.5937   8.5976
     8.6232   8.6627   8.7149   8.7364   8.7750   8.8315   8.8596   9.0556
     9.0911   9.1058   9.1580   9.2925   9.3157   9.3320   9.4117   9.4204
     9.4330   9.4806   9.5201   9.5833   9.6818   9.6850   9.7178   9.7738
     9.7806   9.8075   9.8326   9.8699   9.8988  10.0026  10.0133  10.0545
    10.0715  10.0838  10.1575  10.2898  10.2969  10.3327  10.3687  10.3910
    10.4641  10.5097  10.5429  10.5734  10.5834  10.6268  10.6751  10.7172
    10.7687  10.7696  10.8201  10.9152  10.9747  10.9858  11.0990  11.1331
    11.2404  11.3661  11.3772  11.4364  11.5039  11.5278  11.5731  11.7207
    11.7660  11.7961  11.8206  11.8747  11.9094  11.9226  11.9885  11.9910
    11.9999  12.0094  12.0702  12.1057  12.1371  12.1462  12.1551  12.2435
    12.2497  12.2614  12.2819  12.3059  12.3213  12.3493  12.3839  12.4542
    12.4860  12.5018  12.5720  12.6423  12.7056  12.7364  12.8048  12.8348
    12.8477  12.8890  12.9283  12.9615  12.9650  12.9888  13.0321  13.0578
    13.1219  13.1380  13.1767  13.2233  13.3503  13.3716  13.6451  13.7776
    13.8412  13.9340  13.9658  14.2649  14.8134  14.8382  15.8647  16.1341
    16.2099  16.6720  16.7652  17.2158  17.2611  17.3885  17.4225  17.5080
    17.7369  17.8522  18.1190  18.3890  18.6917  18.7044  18.9825  19.0224
    19.4167  19.5843

          k =-0.1768-0.1768 0.4081 ( 13683 PWs)   bands (ev):

   -66.3623 -66.3620 -66.3497 -66.3494 -66.3197 -66.3193 -61.9332 -61.9327
   -35.1464 -35.1460 -35.1169 -35.1166 -35.1028 -35.1007 -35.0953 -35.0935
   -35.0879 -35.0877 -35.0736 -35.0698 -35.0616 -35.0573 -35.0556 -35.0525
   -35.0361 -35.0353 -30.7628 -30.7625 -30.7593 -30.7586 -30.7565 -30.7507
     6.3847   7.9485   7.9539   8.0546   8.2790   8.4514   8.4591   8.5963
     8.6218   8.6250   8.7794   8.9461   8.9855   9.0160   9.0391   9.0581
     9.1630   9.1928   9.2231   9.2854   9.3487   9.5024   9.5198   9.5505
     9.5692   9.6176   9.6685   9.6818   9.6831   9.7145   9.7525   9.7766
     9.8128   9.8251   9.8707   9.9180   9.9506  10.0010  10.0275  10.0874
    10.1402  10.1754  10.2146  10.2357  10.2806  10.3085  10.3601  10.3992
    10.4176  10.4681  10.5172  10.6290  10.6794  10.7214  10.7733  10.8170
    10.8511  10.8661  10.9960  11.0380  11.1823  11.1992  11.2557  11.3033
    11.3199  11.3561  11.3700  11.4344  11.4622  11.4893  11.5579  11.6315
    11.6401  11.7873  11.8196  11.8750  11.8829  11.9233  11.9489  11.9730
    11.9910  11.9931  12.0057  12.0703  12.0902  12.1110  12.1721  12.1845
    12.1962  12.2281  12.2385  12.2505  12.2611  12.3197  12.3319  12.3334
    12.3414  12.3798  12.4053  12.4230  12.5205  12.5588  12.5676  12.5874
    12.6239  12.6480  12.6951  12.7467  12.7851  12.8319  12.8961  12.9172
    12.9251  13.0539  13.1193  13.2242  13.3408  13.3617  13.4982  13.5273
    13.9637  13.9906  14.9537  15.1166  15.5264  15.8873  16.0191  16.2948
    16.7945  17.0064  17.0519  17.1361  17.3921  17.4598  17.7007  17.7203
    17.8830  18.1167  18.1711  18.2508  18.8035  18.9282  19.0525  19.2465
    19.6827  19.9417

          k = 0.3536 0.3536 0.2721 ( 13708 PWs)   bands (ev):

   -66.3623 -66.3620 -66.3496 -66.3493 -66.3197 -66.3193 -61.9332 -61.9327
   -35.1464 -35.1460 -35.1169 -35.1165 -35.1027 -35.1007 -35.0953 -35.0935
   -35.0878 -35.0877 -35.0736 -35.0698 -35.0616 -35.0575 -35.0553 -35.0526
   -35.0361 -35.0353 -30.7628 -30.7625 -30.7593 -30.7585 -30.7564 -30.7507
     6.5311   6.5812   8.0194   8.0203   8.0998   8.1124   8.6268   8.7218
     8.7509   8.7798   8.9025   8.9293   9.2559   9.2617   9.2990   9.3040
     9.3232   9.3637   9.4209   9.4235   9.4914   9.5111   9.5155   9.5399
     9.5550   9.5698   9.6011   9.6339   9.6638   9.7374   9.8202   9.8580
     9.8978  10.0339  10.0575  10.0661  10.1134  10.1232  10.1966  10.2550
    10.2746  10.2986  10.3053  10.3153  10.3421  10.3569  10.4012  10.4179
    10.4514  10.4984  10.5272  10.5880  10.6452  10.6592  10.6857  10.6900
    10.7082  10.7662  10.8839  10.9021  10.9597  10.9905  10.9917  11.0341
    11.0536  11.1206  11.2529  11.2560  11.3183  11.3224  11.3466  11.3883
    11.3934  11.4226  11.4313  11.4667  11.5196  11.5985  11.6283  11.6963
    11.7200  11.7658  11.8418  11.8618  11.9110  11.9218  11.9475  12.0156
    12.0670  12.0779  12.1319  12.1369  12.1455  12.2019  12.2170  12.2843
    12.3150  12.3623  12.4181  12.4220  12.4824  12.5238  12.6141  12.6277
    12.6720  12.7272  12.7805  12.8468  12.9396  12.9752  13.0051  13.0207
    13.0751  13.1293  13.1742  13.1749  14.2540  14.9061  15.1169  15.3012
    15.4964  15.7662  15.7852  15.9589  16.0238  16.0949  16.1410  16.1900
    16.6562  16.7655  17.0229  17.0496  17.1232  17.2400  17.5470  17.6343
    17.6364  17.7916  17.8297  18.1549  18.2052  18.2867  18.5987  18.9836
    19.6755  19.6807

          k = 0.3536 0.3536-0.2721 ( 13700 PWs)   bands (ev):

   -66.3623 -66.3620 -66.3497 -66.3493 -66.3197 -66.3193 -61.9332 -61.9327
   -35.1465 -35.1460 -35.1169 -35.1166 -35.1027 -35.1007 -35.0953 -35.0936
   -35.0879 -35.0877 -35.0736 -35.0698 -35.0616 -35.0575 -35.0553 -35.0526
   -35.0361 -35.0353 -30.7628 -30.7625 -30.7593 -30.7586 -30.7565 -30.7507
     6.5555   7.5707   8.0597   8.0633   8.3548   8.5582   8.5606   8.6156
     8.6218   8.6705   8.8094   8.8423   8.8992   8.9526   8.9834   9.2198
     9.2560   9.2621   9.3154   9.3341   9.3727   9.4029   9.4456   9.4950
     9.5046   9.5434   9.5586   9.5772   9.6486   9.6707   9.7129   9.7859
     9.8115   9.8536   9.8788   9.9002  10.0295  10.0913  10.1193  10.1519
    10.1961  10.2507  10.3020  10.3135  10.3298  10.3668  10.3948  10.4565
    10.4823  10.5125  10.5274  10.6191  10.6653  10.7177  10.8025  10.8157
    10.8357  10.8650  10.8942  10.9768  10.9987  11.0523  11.1566  11.1744
    11.2228  11.3130  11.3521  11.3669  11.4357  11.4525  11.5007  11.5502
    11.5909  11.6260  11.6499  11.7048  11.7719  11.8131  11.8617  11.9065
    11.9458  11.9702  11.9980  12.0155  12.0321  12.0498  12.0740  12.0849
    12.0982  12.1230  12.1778  12.1976  12.2377  12.2655  12.2860  12.2921
    12.3096  12.3235  12.3865  12.4061  12.4758  12.5656  12.6028  12.6634
    12.6832  12.7201  12.7725  12.8138  12.8821  12.9225  12.9776  13.0597
    13.0816  13.1023  13.1910  13.2047  13.3832  13.4929  14.0246  14.1146
    14.6355  14.9991  15.0307  15.5586  15.7025  15.8303  15.8398  16.0115
    16.5598  16.6899  16.8403  16.9381  17.2621  17.3661  17.5033  17.6549
    17.7299  17.9367  18.0472  18.1033  18.3947  18.7004  18.7914  19.6257
    19.7462  19.8661

          k = 0.3536 0.3536 1.3603 ( 13692 PWs)   bands (ev):

   -66.3624 -66.3620 -66.3497 -66.3493 -66.3197 -66.3193 -61.9332 -61.9327
   -35.1465 -35.1460 -35.1169 -35.1166 -35.1027 -35.1008 -35.0953 -35.0936
   -35.0879 -35.0877 -35.0736 -35.0698 -35.0616 -35.0575 -35.0553 -35.0526
   -35.0361 -35.0353 -30.7627 -30.7625 -30.7593 -30.7586 -30.7565 -30.7507
     7.5332   7.6076   8.2861   8.4148   8.5104   8.5126   8.5477   8.5482
     8.6100   8.6228   8.6970   8.7068   8.8389   8.8587   8.9059   8.9153
     9.0303   9.0854   9.1956   9.2222   9.2303   9.2656   9.3259   9.3277
     9.4337   9.4470   9.4644   9.4909   9.6761   9.6763   9.7238   9.7566
     9.7817   9.7835   9.8346   9.8347   9.8750   9.9282   9.9707   9.9923
    10.1131  10.1363  10.1877  10.2201  10.3454  10.3671  10.4091  10.4808
    10.5027  10.5747  10.5999  10.6083  10.7646  10.7661  10.7763  10.8539
    10.8943  10.9636  11.0563  11.0925  11.1046  11.1288  11.3119  11.4069
    11.4102  11.5275  11.6100  11.7111  11.7244  11.7421  11.8026  11.8127
    11.8291  11.8668  11.8911  11.8926  11.9595  11.9748  11.9969  12.0055
    12.0278  12.0352  12.0423  12.0773  12.0845  12.0931  12.1099  12.1201
    12.1303  12.1544  12.1920  12.2224  12.2502  12.2503  12.2637  12.2724
    12.2942  12.3065  12.3278  12.3411  12.4691  12.6135  12.7034  12.7050
    12.7531  12.7553  12.7791  12.8259  12.8470  12.9108  12.9327  12.9651
    13.0726  13.1290  13.1981  13.2294  13.3229  13.4473  13.5217  13.5531
    13.8977  13.9820  14.2893  14.3052  14.9717  14.9729  15.0764  15.0896
    16.1072  16.6955  16.8435  17.2692  17.2856  17.3743  17.4587  17.4990
    17.7296  17.8271  18.2248  18.5272  18.5932  18.9466  19.3511  19.5948
    19.9031  19.9046

          k = 0.1768-0.1768 0.0000 ( 13644 PWs)   bands (ev):

   -66.3623 -66.3620 -66.3496 -66.3494 -66.3197 -66.3193 -61.9332 -61.9327
   -35.1464 -35.1460 -35.1169 -35.1165 -35.1027 -35.1007 -35.0953 -35.0936
   -35.0878 -35.0877 -35.0736 -35.0697 -35.0617 -35.0570 -35.0560 -35.0524
   -35.0362 -35.0353 -30.7628 -30.7625 -30.7593 -30.7585 -30.7564 -30.7507
     6.0520   6.9541   8.0048   8.1491   8.1540   8.2790   8.4455   8.4469
     8.5947   8.5981   8.9345   8.9371   9.2126   9.3350   9.3836   9.4059
     9.4263   9.4396   9.4802   9.5373   9.5441   9.5837   9.5898   9.6017
     9.6091   9.6507   9.6551   9.6866   9.7426   9.7890   9.7943   9.8200
     9.8517   9.9039   9.9943  10.0172  10.0393  10.0709  10.1076  10.1391
    10.1644  10.2161  10.2304  10.2642  10.2977  10.3156  10.3663  10.4066
    10.5077  10.5108  10.5197  10.5307  10.5783  10.5819  10.6165  10.6376
    10.6482  10.7625  10.7945  10.8436  10.8869  11.0375  11.0446  11.0712
    11.0952  11.1289  11.2648  11.3346  11.3475  11.3725  11.3826  11.4592
    11.5256  11.6246  11.6605  11.6820  11.7128  11.7885  11.8212  11.8427
    11.8708  11.9001  11.9348  11.9625  11.9970  12.0085  12.0809  12.1718
    12.1761  12.2294  12.2379  12.2548  12.2796  12.3025  12.3118  12.3409
    12.4351  12.4478  12.4724  12.5313  12.5678  12.5948  12.6143  12.6880
    12.7072  12.7397  12.7625  12.7697  12.8389  12.8741  12.8805  12.8991
    12.9545  13.0209  13.1730  13.1802  13.2135  13.3436  14.0055  14.0194
    15.0757  15.1657  15.4526  15.4917  16.1658  16.3532  16.6255  16.6578
    16.7668  17.0183  17.2136  17.2557  17.3590  17.4867  17.8214  17.9757
    17.9998  18.2214  18.2878  18.6083  18.8209  19.0926  19.1980  19.4992
    19.5444  19.6465

          k = 0.1768-0.1768-0.5441 ( 13695 PWs)   bands (ev):

   -66.3623 -66.3620 -66.3497 -66.3493 -66.3197 -66.3193 -61.9332 -61.9327
   -35.1464 -35.1460 -35.1169 -35.1166 -35.1027 -35.1007 -35.0953 -35.0936
   -35.0879 -35.0877 -35.0736 -35.0697 -35.0617 -35.0570 -35.0560 -35.0524
   -35.0361 -35.0353 -30.7628 -30.7625 -30.7593 -30.7586 -30.7565 -30.7507
     6.6333   7.4818   7.6670   8.2864   8.4493   8.5337   8.6232   8.6912
     8.7429   8.7743   8.8897   8.8981   8.9180   8.9368   9.0261   9.0873
     9.1158   9.1388   9.1855   9.2320   9.4121   9.4229   9.4380   9.4868
     9.5191   9.5499   9.6048   9.6431   9.6596   9.6650   9.6992   9.7530
     9.7838   9.8321   9.8408   9.8683   9.9206   9.9905  10.0527  10.1339
    10.2280  10.2771  10.2986  10.3500  10.3921  10.4163  10.4608  10.4864
    10.5595  10.6164  10.6359  10.6443  10.6742  10.6828  10.7597  10.8124
    10.8462  10.8619  10.8763  10.9224  10.9776  11.0609  11.1272  11.2699
    11.2953  11.3374  11.3697  11.3794  11.4694  11.4995  11.5099  11.5576
    11.6022  11.6305  11.6898  11.7342  11.7633  11.7983  11.8192  11.8474
    11.9129  11.9364  12.0007  12.0131  12.0357  12.0387  12.0530  12.0822
    12.1277  12.1441  12.1561  12.2036  12.2164  12.2638  12.3012  12.3141
    12.3310  12.3469  12.3622  12.4031  12.5178  12.5444  12.5879  12.6175
    12.6890  12.7284  12.7525  12.8031  12.8499  12.9326  12.9812  13.0217
    13.1359  13.1760  13.3617  13.3824  13.4514  13.6070  13.7151  13.7723
    14.3805  14.7646  14.9106  15.1663  15.3954  15.9045  16.0158  16.1785
    16.4252  16.9445  17.0098  17.1350  17.3003  17.3768  17.4681  17.5970
    17.9159  18.0139  18.3190  18.4622  18.7620  18.7998  18.8997  19.1582
    19.5898  19.8387

          k = 0.1768-0.1768 1.0883 ( 13696 PWs)   bands (ev):

   -66.3623 -66.3620 -66.3497 -66.3493 -66.3198 -66.3193 -61.9332 -61.9327
   -35.1465 -35.1460 -35.1169 -35.1166 -35.1027 -35.1008 -35.0953 -35.0936
   -35.0879 -35.0877 -35.0736 -35.0697 -35.0617 -35.0570 -35.0560 -35.0524
   -35.0361 -35.0353 -30.7627 -30.7625 -30.7593 -30.7586 -30.7565 -30.7507
     7.8553   8.1393   8.1451   8.3500   8.3759   8.4112   8.4513   8.4944
     8.5777   8.5994   8.6285   8.7083   8.7141   8.8034   8.9319   8.9775
     9.0257   9.2534   9.3722   9.3862   9.4317   9.4466   9.4706   9.4907
     9.5031   9.5819   9.5913   9.6061   9.6149   9.7099   9.7146   9.7812
     9.8087   9.8316   9.8711   9.8985   9.9694   9.9972  10.0393  10.0476
    10.0567  10.1397  10.1514  10.1959  10.2057  10.2227  10.2233  10.2971
    10.3366  10.3655  10.4411  10.4706  10.4877  10.4994  10.5237  10.5514
    10.6312  10.6432  10.7202  10.7714  10.8126  11.0141  11.1877  11.2188
    11.2591  11.3195  11.3399  11.4024  11.5039  11.5564  11.6186  11.6782
    11.7134  11.7603  11.7743  11.7848  11.8617  11.8942  11.9546  11.9691
    11.9738  11.9929  12.0713  12.0787  12.1321  12.1398  12.1840  12.2066
    12.2611  12.2738  12.3295  12.3403  12.3764  12.3798  12.4173  12.4466
    12.5135  12.5521  12.5623  12.6681  12.7004  12.7336  12.7613  12.7646
    12.7845  12.8385  12.8898  12.8938  12.9376  12.9546  13.0786  13.0954
    13.1100  13.1429  13.1838  13.2083  13.2709  13.3837  13.9253  14.0076
    14.3734  14.4368  14.5423  15.1324  15.2618  15.4658  15.5394  16.0056
    16.2173  16.3830  16.8714  16.9320  17.2200  17.2936  17.3762  17.4794
    17.5454  17.7931  17.8354  17.8972  18.1031  18.2767  18.7109  18.8558
    18.9974  19.2536

          k = 0.0000-0.3536-0.1360 ( 13676 PWs)   bands (ev):

   -66.3623 -66.3620 -66.3497 -66.3494 -66.3197 -66.3193 -61.9332 -61.9327
   -35.1464 -35.1460 -35.1169 -35.1165 -35.1027 -35.1008 -35.0952 -35.0936
   -35.0878 -35.0877 -35.0736 -35.0697 -35.0616 -35.0573 -35.0556 -35.0525
   -35.0361 -35.0353 -30.7628 -30.7625 -30.7593 -30.7585 -30.7564 -30.7507
     6.2127   7.0984   7.3692   8.0517   8.1403   8.3992   8.5584   8.6064
     8.7868   8.7922   9.0111   9.0557   9.1362   9.2690   9.2992   9.3060
     9.3166   9.3403   9.3763   9.3903   9.4003   9.4692   9.5113   9.5631
     9.5856   9.6099   9.6720   9.7098   9.7783   9.8451   9.8763   9.9231
     9.9424   9.9752  10.0019  10.0150  10.0340  10.0764  10.1282  10.1472
    10.1933  10.2296  10.2864  10.3176  10.3531  10.3722  10.4059  10.4587
    10.4687  10.5307  10.5866  10.6180  10.6550  10.6715  10.6879  10.7136
    10.7676  10.7777  10.8264  10.8693  10.8887  10.9294  10.9938  11.0685
    11.0847  11.1527  11.2097  11.2528  11.2842  11.3279  11.3629  11.3995
    11.5060  11.5517  11.6028  11.6358  11.6961  11.7115  11.7261  11.7523
    11.7632  11.8383  11.8566  11.8837  11.9295  11.9355  11.9800  12.0194
    12.0629  12.0831  12.1434  12.1979  12.2382  12.2819  12.2964  12.3150
    12.3314  12.3493  12.3669  12.4367  12.4448  12.5439  12.5675  12.6563
    12.7082  12.7524  12.8144  12.8473  12.8633  12.8936  12.9525  13.0424
    13.0946  13.1591  13.2180  13.4470  13.5510  13.9729  13.9902  14.7947
    15.1088  15.4525  15.7072  15.8232  15.9712  16.1326  16.3263  16.5727
    16.7246  16.9270  17.1433  17.2453  17.3219  17.4623  17.5854  17.7333
    17.8412  18.1981  18.3023  18.3627  18.6517  18.7362  19.1043  19.3641
    19.4430  19.8927

          k = 0.0000-0.3536-0.6802 ( 13702 PWs)   bands (ev):

   -66.3623 -66.3620 -66.3497 -66.3493 -66.3197 -66.3193 -61.9332 -61.9327
   -35.1465 -35.1460 -35.1169 -35.1166 -35.1027 -35.1008 -35.0952 -35.0936
   -35.0879 -35.0877 -35.0736 -35.0697 -35.0617 -35.0573 -35.0556 -35.0525
   -35.0361 -35.0353 -30.7628 -30.7625 -30.7593 -30.7586 -30.7565 -30.7507
     7.0377   7.1062   7.8119   7.8794   8.5335   8.6095   8.7544   8.7856
     8.8058   8.8170   8.8711   8.9099   8.9459   8.9873   9.0634   9.0746
     9.1280   9.1739   9.2083   9.2262   9.3060   9.3532   9.3612   9.3996
     9.4395   9.5347   9.5553   9.5885   9.6192   9.6385   9.7344   9.7687
     9.8112   9.8421   9.9556  10.0044  10.0377  10.0875  10.1260  10.1942
    10.2163  10.2637  10.3055  10.3486  10.3636  10.3729  10.4238  10.4889
    10.5135  10.5597  10.5900  10.6296  10.6797  10.7293  10.7906  10.7947
    10.8223  10.8708  10.9055  10.9313  10.9522  11.0799  11.1258  11.1391
    11.1812  11.1965  11.2428  11.2771  11.3075  11.4111  11.4325  11.5113
    11.5404  11.5503  11.5794  11.6673  11.7250  11.7456  11.7664  11.8275
    11.8418  11.8700  11.9199  11.9312  11.9555  12.0070  12.0412  12.0677
    12.0720  12.1199  12.1848  12.2095  12.2296  12.2794  12.2886  12.3228
    12.3616  12.3853  12.4005  12.4163  12.4605  12.5138  12.6029  12.6197
    12.7112  12.7204  12.7667  12.8690  12.9184  12.9456  13.0040  13.0790
    13.1077  13.2455  13.2824  13.6726  13.8209  14.0572  14.1939  14.3637
    14.5541  14.9153  15.2241  15.3873  15.5405  15.7124  15.8330  16.1198
    16.3539  16.6377  16.8431  16.9968  17.1983  17.3548  17.4448  17.5708
    17.7990  17.8258  18.0206  18.1350  18.3578  18.8906  19.2394  19.3604
    19.7413  19.8480

          k = 0.0000-0.3536 0.9522 ( 13693 PWs)   bands (ev):

   -66.3623 -66.3620 -66.3497 -66.3493 -66.3197 -66.3193 -61.9332 -61.9327
   -35.1465 -35.1460 -35.1169 -35.1166 -35.1027 -35.1008 -35.0952 -35.0936
   -35.0879 -35.0877 -35.0736 -35.0697 -35.0617 -35.0573 -35.0556 -35.0525
   -35.0361 -35.0353 -30.7627 -30.7625 -30.7593 -30.7586 -30.7565 -30.7507
     7.7089   7.8145   8.2794   8.2868   8.3409   8.4433   8.4822   8.5290
     8.6075   8.6655   8.7083   8.7748   8.7987   8.8593   8.9510   9.0115
     9.0483   9.1936   9.2389   9.2641   9.2993   9.3314   9.3405   9.4097
     9.4506   9.4641   9.5062   9.5529   9.5935   9.6569   9.6947   9.7222
     9.7262   9.7901   9.8153   9.8869   9.9101   9.9394   9.9904  10.0305
    10.0930  10.1420  10.1706  10.2355  10.3289  10.3610  10.4201  10.4280
    10.4655  10.5247  10.5762  10.6156  10.6480  10.6643  10.7211  10.7264
    10.8031  10.8227  10.8789  10.9288  11.0657  11.0726  11.1383  11.2170
    11.2885  11.3816  11.4180  11.4431  11.4792  11.6269  11.6470  11.7049
    11.7594  11.7916  11.8120  11.8821  11.9080  11.9136  11.9506  11.9751
    12.0080  12.0188  12.0580  12.0763  12.0926  12.0967  12.1390  12.2080
    12.2345  12.2434  12.2715  12.2987  12.3067  12.3297  12.3613  12.3788
    12.4054  12.4440  12.4784  12.5701  12.5910  12.6293  12.6975  12.7523
    12.7774  12.7956  12.8660  12.8894  12.9378  12.9735  12.9917  13.0599
    13.0903  13.1187  13.1768  13.1840  13.2211  13.4832  13.8050  13.9038
    13.9650  14.1539  14.2052  14.6436  14.9414  15.5904  15.6367  15.9444
    16.1346  16.5932  16.8807  16.9677  17.1585  17.3063  17.4115  17.4458
    17.5137  17.7346  17.7666  18.0853  18.2804  18.3448  18.4068  19.1197
    19.3998  19.9107

          k = 0.0000-0.3536 0.4081 ( 13687 PWs)   bands (ev):

   -66.3623 -66.3620 -66.3497 -66.3494 -66.3197 -66.3193 -61.9332 -61.9327
   -35.1464 -35.1460 -35.1169 -35.1166 -35.1027 -35.1008 -35.0952 -35.0936
   -35.0879 -35.0877 -35.0736 -35.0697 -35.0616 -35.0573 -35.0556 -35.0525
   -35.0361 -35.0353 -30.7628 -30.7625 -30.7593 -30.7586 -30.7565 -30.7507
     6.5025   7.3622   8.1485   8.2780   8.3910   8.4146   8.4506   8.5426
     8.6140   8.6795   8.8399   8.9764   9.0066   9.0266   9.0762   9.0942
     9.1218   9.1692   9.2482   9.2877   9.3086   9.4165   9.4517   9.5293
     9.5332   9.5476   9.5750   9.5989   9.6156   9.6471   9.6958   9.7305
     9.7864   9.8227   9.8412   9.8701   9.8899   9.9868  10.0545  10.0596
    10.1800  10.2214  10.3018  10.3553  10.4022  10.4292  10.4613  10.5108
    10.5462  10.5862  10.6522  10.6863  10.7485  10.8071  10.8327  10.8772
    10.8866  10.9618  10.9934  11.0526  11.1081  11.1397  11.1547  11.2289
    11.2950  11.3943  11.4046  11.4440  11.4948  11.5307  11.5640  11.5860
    11.6488  11.7031  11.7874  11.8474  11.8673  11.8759  11.9063  11.9321
    11.9669  11.9831  12.0072  12.0151  12.0652  12.0884  12.1135  12.1334
    12.1507  12.1690  12.2221  12.2529  12.2733  12.3039  12.3094  12.3414
    12.3428  12.3641  12.3930  12.4134  12.4544  12.5587  12.5592  12.5948
    12.6341  12.6737  12.6951  12.7473  12.7803  12.8095  12.8581  12.9091
    12.9182  12.9404  13.0401  13.0709  13.0956  13.1824  13.2222  14.3584
    14.4483  14.6373  14.8933  15.1088  15.3341  15.6672  16.0655  16.3201
    16.7179  16.7991  16.9394  17.1045  17.2291  17.4647  17.6172  17.6835
    17.8679  17.9428  18.0316  18.3858  18.6222  18.7014  18.9703  19.2794
    19.9159  20.0955

          k = 0.5303 0.1768 0.2721 ( 13658 PWs)   bands (ev):

   -66.3623 -66.3620 -66.3496 -66.3494 -66.3196 -66.3193 -61.9331 -61.9327
   -35.1464 -35.1460 -35.1169 -35.1165 -35.1028 -35.1006 -35.0953 -35.0936
   -35.0878 -35.0877 -35.0736 -35.0697 -35.0616 -35.0575 -35.0553 -35.0526
   -35.0361 -35.0353 -30.7629 -30.7625 -30.7593 -30.7585 -30.7564 -30.7507
     6.6490   6.6960   7.4934   7.5321   8.4372   8.4849   8.6416   8.7704
     8.8134   8.8371   8.9471   8.9702   9.2168   9.2460   9.2494   9.2772
     9.2900   9.2978   9.3242   9.3398   9.4100   9.4278   9.4541   9.5019
     9.5307   9.5512   9.5881   9.6881   9.7083   9.7669   9.8476   9.8809
     9.9201   9.9590  10.0944  10.1240  10.1499  10.1631  10.1891  10.2119
    10.2419  10.2639  10.3231  10.3751  10.3976  10.4061  10.4340  10.4975
    10.5138  10.5740  10.6073  10.6572  10.6879  10.6982  10.7228  10.7726
    10.8055  10.8370  10.8596  10.9206  10.9321  10.9558  11.0005  11.0501
    11.1205  11.1668  11.1850  11.2668  11.3034  11.3066  11.3392  11.3412
    11.3750  11.4147  11.4436  11.4811  11.5217  11.5849  11.6306  11.6635
    11.6841  11.7448  11.7863  11.8125  11.8448  11.8848  11.9554  11.9706
    12.0013  12.0306  12.1087  12.1294  12.1387  12.2062  12.2842  12.2982
    12.3125  12.3298  12.3780  12.4049  12.4400  12.5310  12.6211  12.6667
    12.6953  12.7441  12.8416  12.8933  12.9171  12.9255  12.9942  13.0471
    13.1196  13.1354  13.2832  13.2882  14.2577  14.7319  14.7863  14.9328
    15.3167  15.4662  15.6231  15.6618  16.0142  16.0737  16.2339  16.3884
    16.8693  16.9198  17.0208  17.1305  17.2361  17.3115  17.5684  17.6933
    17.7615  17.7726  17.8613  18.1554  18.2355  18.3589  19.5257  19.7917
[...]
    11.8830  11.8853  11.9774  12.0031  12.0701  12.1051  12.1402  12.2072
    12.2171  12.2452  12.3087  12.3301  12.3887  12.4346  12.4906  12.5209
    12.5635  12.5944  12.6351  12.6740  12.7283  12.7543  12.8149  12.8533
    12.8841  12.9068  13.2732  13.3601  14.3976  14.5217  14.7424  14.8551
    14.9030  15.1049  15.3976  15.4551  15.5013  15.6981  15.7501  16.1810
    16.9105  16.9248  17.0334  17.1815  17.1964  17.2869  17.3365  17.3428
    17.3666  17.3892  17.4183  17.4415  17.4825  17.5390  17.5766  17.6263
    17.6722  17.7363  17.7818  17.9615  17.9748  18.0275  18.1692  18.3334
    18.4179  18.4454  18.5474  18.6405  19.4609  19.5809  19.8914  19.9244
    19.9914  20.0739

          k = 0.0000 0.7071 0.2721 ( 13680 PWs)   bands (ev):

   -66.5536 -66.5533 -61.8082 -61.8079 -61.8035 -61.8030 -61.7864 -61.7860
   -35.3276 -35.3274 -35.2823 -35.2770 -35.2725 -35.2723 -30.6438 -30.6423
   -30.6401 -30.6388 -30.6380 -30.6376 -30.6345 -30.6320 -30.6306 -30.6262
   -30.6249 -30.6231 -30.6186 -30.6178 -30.6101 -30.6095 -30.6090 -30.6087
     6.9685   7.0887   7.1496   7.1633   8.6177   8.8380   8.9503   8.9570
     9.0360   9.0555   9.2144   9.2296   9.2503   9.2827   9.3152   9.4154
     9.4184   9.4440   9.5105   9.5758   9.6398   9.6932   9.6972   9.7162
     9.7605   9.8813   9.8835   9.8895  10.0266  10.0456  10.0824  10.0987
    10.1435  10.1568  10.1682  10.1777  10.2211  10.2394  10.2425  10.2499
    10.4030  10.4927  10.5667  10.5903  10.6397  10.6712  10.7186  10.7852
    10.8064  10.8443  10.9711  11.0570  11.0759  11.0845  11.1287  11.1484
    11.1583  11.1709  11.1930  11.2082  11.2156  11.2817  11.2863  11.3125
    11.3244  11.3507  11.4129  11.4354  11.4725  11.5545  11.6238  11.7072
    11.7236  11.7455  11.8470  11.8575  11.9496  12.0232  12.0791  12.1189
    12.1420  12.1693  12.2316  12.2342  12.3358  12.4425  12.5583  12.5885
    12.6049  12.6376  12.6616  12.7105  12.7214  12.8167  13.1505  13.2830
    13.5094  13.5412  14.0061  14.1115  14.3176  14.8372  14.9463  15.0288
    15.0421  15.1703  15.4312  15.4437  15.9357  16.1515  16.3116  16.6415
    16.7750  16.9171  17.1996  17.2408  17.3225  17.3288  17.3491  17.3638
    17.3842  17.4228  17.4603  17.5568  17.6436  17.6666  17.6707  17.7141
    17.7545  17.8436  17.9886  18.0929  18.1715  18.1952  18.2211  18.4239
    18.4932  18.5335  18.7350  18.7476  19.1790  19.3030  19.3312  19.4537
    20.7301  20.7935

          k = 0.0000 0.7071-0.2721 ( 13688 PWs)   bands (ev):

   -66.5536 -66.5533 -61.8082 -61.8079 -61.8035 -61.8030 -61.7864 -61.7860
   -35.3276 -35.3274 -35.2823 -35.2770 -35.2725 -35.2723 -30.6437 -30.6422
   -30.6401 -30.6388 -30.6381 -30.6377 -30.6344 -30.6320 -30.6306 -30.6262
   -30.6249 -30.6232 -30.6186 -30.6178 -30.6101 -30.6096 -30.6089 -30.6087
     7.0371   7.1410   7.9411   8.0210   8.7127   8.7368   8.7857   8.8601
     8.9035   8.9287   9.0828   9.1385   9.1704   9.2093   9.2279   9.3020
     9.3235   9.3401   9.4312   9.5044   9.5550   9.6381   9.6500   9.6644
     9.7206   9.7522   9.7698   9.8350   9.8652   9.8816   9.9234  10.0103
    10.0954  10.1120  10.1472  10.1669  10.1918  10.2254  10.2361  10.2501
    10.2814  10.3397  10.5240  10.5902  10.6286  10.6669  10.8242  10.8578
    10.9164  10.9689  11.0606  11.0751  11.0979  11.1228  11.1519  11.1637
    11.1741  11.2053  11.2151  11.2319  11.2773  11.3000  11.3387  11.4344
    11.4556  11.5101  11.5442  11.6138  11.6307  11.7341  11.8020  11.8801
    11.9151  11.9746  12.0186  12.0244  12.1204  12.1318  12.1499  12.1549
    12.1988  12.2643  12.2938  12.3229  12.3382  12.3746  12.5875  12.6014
    12.6172  12.6325  12.6531  12.6846  12.7244  12.7516  13.1194  13.1742
    13.2139  13.2429  13.4439  13.5376  14.0894  14.2070  14.3733  14.5131
    15.0944  15.1922  15.4048  15.4673  15.5419  16.0106  16.2926  16.4955
    16.6609  16.7084  17.1078  17.2223  17.2710  17.2789  17.3381  17.4006
    17.4039  17.4202  17.4658  17.4826  17.4987  17.5680  17.5961  17.6350
    17.6903  17.7406  17.8412  17.8737  18.0606  18.1867  18.2113  18.2823
    18.3469  18.4299  18.4779  18.5728  18.6298  18.7399  19.2819  19.3680
    20.6830  20.9114

          k = 0.0000 0.7071 1.3603 ( 13696 PWs)   bands (ev):

   -66.5536 -66.5532 -61.8082 -61.8079 -61.8034 -61.8030 -61.7864 -61.7860
   -35.3275 -35.3274 -35.2823 -35.2770 -35.2725 -35.2724 -30.6436 -30.6422
   -30.6402 -30.6387 -30.6382 -30.6377 -30.6344 -30.6320 -30.6307 -30.6263
   -30.6249 -30.6232 -30.6186 -30.6178 -30.6102 -30.6096 -30.6089 -30.6087
     7.8596   7.9756   8.0185   8.0729   8.5971   8.6526   8.7810   8.7824
     8.8863   8.9539   8.9543   8.9716   9.0623   9.1128   9.1325   9.1832
     9.2361   9.3141   9.3414   9.4737   9.5426   9.5508   9.5684   9.6182
     9.6357   9.6433   9.7205   9.7627   9.7889   9.7901   9.8501   9.8769
     9.8964   9.9920  10.0683  10.1635  10.1784  10.1815  10.2232  10.2359
    10.2389  10.2598  10.3042  10.4555  10.5131  10.7581  10.8508  10.9384
    10.9664  11.0407  11.0485  11.0970  11.1152  11.1649  11.2003  11.2030
    11.2734  11.2913  11.2921  11.4107  11.4342  11.4841  11.5248  11.5481
    11.5744  11.7049  11.7443  11.8073  11.8841  11.9185  11.9570  11.9909
    12.0151  12.0265  12.1118  12.1133  12.1302  12.1315  12.2316  12.2466
    12.2825  12.2973  12.3164  12.3483  12.3925  12.4789  12.5853  12.5871
    12.6175  12.6238  12.6550  12.6561  12.6703  12.7687  13.0565  13.0905
    13.1531  13.1780  13.2074  13.3347  13.4699  13.7282  14.0048  14.1405
    14.3707  14.5965  15.0477  15.4222  15.6167  16.0013  16.3186  16.3440
    16.4920  16.7224  17.0543  17.0553  17.1925  17.2686  17.2775  17.3363
    17.3387  17.4226  17.4540  17.4613  17.4653  17.4717  17.5689  17.5934
    17.5970  17.6904  17.6908  17.7282  17.7387  17.8153  18.1873  18.2435
    18.3625  18.3963  18.4380  18.4484  18.4899  18.5913  18.6619  18.7418
    20.6665  20.8944

          k = 0.1768-0.1768 0.5441 ( 13695 PWs)   bands (ev):

   -66.5536 -66.5533 -61.8082 -61.8078 -61.8035 -61.8030 -61.7864 -61.7860
   -35.3276 -35.3274 -35.2823 -35.2770 -35.2725 -35.2723 -30.6433 -30.6424
   -30.6403 -30.6393 -30.6382 -30.6374 -30.6338 -30.6325 -30.6305 -30.6264
   -30.6251 -30.6225 -30.6192 -30.6174 -30.6101 -30.6096 -30.6090 -30.6086
     6.7090   7.5845   7.7856   8.3681   8.5846   8.6498   8.8627   8.9042
     8.9173   8.9749   9.0161   9.0705   9.1613   9.2251   9.3018   9.3228
     9.3453   9.3672   9.4052   9.4334   9.5903   9.6113   9.6588   9.6729
     9.6803   9.7228   9.7395   9.8111   9.8570   9.9029   9.9260   9.9603
     9.9926  10.0267  10.1053  10.1779  10.2671  10.2860  10.3077  10.3295
    10.3662  10.4799  10.5074  10.5759  10.6197  10.6465  10.6803  10.7596
    10.7736  10.8184  10.8759  10.8939  10.9660  11.0235  11.0560  11.0598
    11.1077  11.1385  11.2161  11.2794  11.3075  11.3739  11.4734  11.5405
    11.5867  11.6053  11.6491  11.7375  11.7838  11.8084  11.8770  11.9053
    11.9356  11.9663  12.0408  12.0803  12.1484  12.1648  12.1990  12.2256
    12.2587  12.2941  12.3171  12.3306  12.4104  12.4381  12.5027  12.5324
    12.5436  12.5869  12.6711  12.7667  12.7810  12.9106  12.9563  13.0997
    13.1240  13.1618  13.2619  13.6436  13.8362  13.9837  14.3524  14.7239
    14.9368  14.9622  15.2201  15.3566  15.9606  16.1180  16.2896  16.5404
    17.0250  17.0967  17.1214  17.1879  17.2204  17.2534  17.2883  17.3045
    17.3388  17.3801  17.4204  17.4306  17.4475  17.5309  17.6043  17.6661
    17.7255  17.7499  17.8486  17.8841  17.9362  17.9875  18.1352  18.3646
    18.4824  18.6281  18.8900  19.0174  19.1707  19.2987  19.4238  19.6057
    20.0053  20.3097

          k = 0.3536 0.0000 0.1360 ( 13676 PWs)   bands (ev):

   -66.5536 -66.5533 -61.8082 -61.8079 -61.8035 -61.8030 -61.7864 -61.7860
   -35.3276 -35.3274 -35.2823 -35.2770 -35.2725 -35.2723 -30.6436 -30.6424
   -30.6402 -30.6390 -30.6382 -30.6374 -30.6342 -30.6320 -30.6305 -30.6264
   -30.6251 -30.6230 -30.6188 -30.6175 -30.6100 -30.6095 -30.6090 -30.6087
     6.2891   7.1972   7.4581   8.1413   8.2967   8.6300   8.7745   8.8300
     8.8820   8.9280   9.2565   9.2616   9.3286   9.3647   9.4318   9.4432
     9.4810   9.5754   9.5852   9.6028   9.6335   9.6661   9.7130   9.7723
     9.7867   9.8480   9.8751   9.9385   9.9677  10.0327  10.0522  10.0612
    10.0837  10.1529  10.1609  10.2313  10.2602  10.3019  10.3241  10.3831
    10.3916  10.3986  10.4417  10.4850  10.5940  10.6235  10.6362  10.7163
    10.7543  10.8207  10.8671  10.8735  10.9288  10.9699  10.9846  11.0652
    11.0996  11.1119  11.1759  11.1831  11.2542  11.2644  11.3606  11.3712
    11.4014  11.4451  11.5398  11.5978  11.6074  11.7029  11.7214  11.7725
    11.8012  11.8686  11.9288  11.9720  11.9939  12.0504  12.0639  12.1234
    12.1764  12.2087  12.2698  12.3447  12.3524  12.4300  12.4428  12.5039
    12.5770  12.6141  12.6348  12.7004  12.7672  12.8254  12.8849  13.1364
    13.1931  13.4543  13.6508  14.3102  14.4888  14.7869  14.9399  15.0441
    15.4240  15.4998  15.6846  15.8446  15.8928  16.0985  16.3111  16.7180
    16.7419  16.8524  17.0365  17.1347  17.1935  17.2200  17.2722  17.3348
    17.3691  17.3978  17.4236  17.4461  17.4868  17.5222  17.6294  17.6370
    17.6818  17.8071  17.9144  18.1182  18.1548  18.2472  18.3156  18.4564
    18.4728  18.7396  18.8344  18.8962  19.2023  19.3649  19.6330  19.7906
    19.8874  20.3549

          k = 0.3536 0.0000 0.6802 ( 13702 PWs)   bands (ev):

   -66.5536 -66.5533 -61.8082 -61.8079 -61.8034 -61.8030 -61.7864 -61.7860
   -35.3276 -35.3274 -35.2823 -35.2770 -35.2725 -35.2723 -30.6436 -30.6423
   -30.6402 -30.6390 -30.6383 -30.6374 -30.6341 -30.6320 -30.6306 -30.6264
   -30.6251 -30.6230 -30.6188 -30.6176 -30.6101 -30.6096 -30.6090 -30.6087
     7.1022   7.2130   7.9076   7.9722   8.6540   8.7673   8.8702   8.9509
     9.0091   9.0135   9.0717   9.0958   9.1246   9.2186   9.2924   9.3114
     9.3499   9.3837   9.4628   9.4865   9.5428   9.5777   9.5939   9.6366
     9.7037   9.7212   9.7389   9.7775   9.8097   9.8539   9.9286   9.9636
    10.0083  10.0685  10.1177  10.1808  10.2224  10.2487  10.3130  10.3600
    10.4450  10.5237  10.5432  10.5663  10.5965  10.6366  10.7032  10.7523
    10.7742  10.7986  10.8363  10.8674  10.9351  10.9855  11.0065  11.0733
    11.1246  11.1715  11.2171  11.2652  11.2819  11.2938  11.4012  11.4714
    11.5398  11.5739  11.5970  11.6311  11.6726  11.7887  11.8210  11.8401
    11.8997  11.9364  12.0156  12.0621  12.1058  12.1581  12.1670  12.2025
    12.2173  12.2578  12.3158  12.3483  12.3940  12.4524  12.5017  12.5280
    12.5728  12.6121  12.6493  12.7292  12.7490  12.9338  12.9822  13.1692
    13.3711  13.4837  13.5973  13.6972  13.9727  14.0977  14.3667  14.8361
    15.0158  15.1876  15.4981  15.5806  15.7504  15.8747  15.9900  16.7213
    16.7505  17.0959  17.1493  17.1851  17.2566  17.2628  17.2995  17.3096
    17.3605  17.3982  17.4402  17.4552  17.5151  17.5908  17.6033  17.6615
    17.6953  17.7633  17.7971  17.9022  17.9408  18.0938  18.1675  18.2725
    18.3490  18.4912  18.5630  18.7167  18.9090  19.2549  19.7105  19.7652
    20.0418  20.3690

          k = 0.3536 0.0000-0.9522 ( 13693 PWs)   bands (ev):

   -66.5536 -66.5532 -61.8082 -61.8079 -61.8034 -61.8030 -61.7864 -61.7860
   -35.3276 -35.3274 -35.2823 -35.2770 -35.2725 -35.2724 -30.6435 -30.6423
   -30.6403 -30.6390 -30.6383 -30.6375 -30.6341 -30.6320 -30.6306 -30.6265
   -30.6251 -30.6230 -30.6188 -30.6175 -30.6102 -30.6096 -30.6090 -30.6086
     7.7769   7.9239   8.3982   8.4329   8.4652   8.6287   8.6361   8.7535
     8.7874   8.8526   8.9126   8.9799   9.0516   9.1397   9.1543   9.2572
     9.3318   9.3393   9.4079   9.4660   9.5199   9.5967   9.6142   9.6394
     9.6879   9.7021   9.7259   9.7560   9.8090   9.8549   9.8968   9.9112
     9.9350  10.0270  10.0329  10.0779  10.1179  10.1585  10.2044  10.2254
    10.2843  10.2996  10.3871  10.4186  10.5624  10.6029  10.6444  10.6538
    10.7060  10.7384  10.8384  10.8686  10.9170  10.9972  11.0102  11.1198
    11.2364  11.2803  11.3233  11.3829  11.4286  11.4824  11.5011  11.6311
    11.6497  11.7503  11.7852  11.8371  11.8742  11.9125  11.9625  11.9888
    12.0237  12.0619  12.1295  12.1419  12.1976  12.2545  12.3119  12.3235
    12.3277  12.3453  12.4094  12.4317  12.4704  12.4968  12.5301  12.5741
    12.6071  12.6375  12.7170  12.7308  12.8564  12.8929  12.9627  13.0391
    13.0959  13.1895  13.3583  13.4819  13.6092  13.6685  13.8079  14.0263
    14.8793  14.9462  15.0335  15.1710  15.5322  15.7787  16.2778  16.5408
    16.7360  17.0378  17.1119  17.1284  17.1521  17.2138  17.2263  17.3140
    17.3887  17.4081  17.4298  17.4743  17.5015  17.5108  17.5497  17.5907
    17.6305  17.6900  17.7189  17.7372  17.9064  17.9697  18.0955  18.2187
    18.3205  18.4067  18.4480  18.5906  18.7019  18.8872  18.9648  19.4074
    19.8371  20.2336

          k = 0.3536 0.0000-0.4081 ( 13687 PWs)   bands (ev):

   -66.5536 -66.5533 -61.8082 -61.8079 -61.8035 -61.8030 -61.7864 -61.7860
   -35.3276 -35.3274 -35.2823 -35.2770 -35.2725 -35.2723 -30.6436 -30.6423
   -30.6402 -30.6390 -30.6382 -30.6375 -30.6341 -30.6320 -30.6306 -30.6264
   -30.6251 -30.6230 -30.6188 -30.6175 -30.6101 -30.6096 -30.6090 -30.6087
     6.5793   7.4594   8.3150   8.4206   8.5167   8.5510   8.6733   8.7292
     8.8331   8.8797   9.0815   9.1178   9.1798   9.2026   9.2531   9.2861
     9.3416   9.3926   9.4340   9.5210   9.5655   9.6140   9.6674   9.6850
     9.7107   9.7361   9.7832   9.8330   9.8597   9.9051   9.9536  10.0154
    10.0348  10.0557  10.0941  10.1284  10.2300  10.2464  10.2735  10.2804
    10.3658  10.4965  10.5264  10.5845  10.6172  10.6830  10.7463  10.7618
    10.8460  10.8537  10.8893  10.9649  11.0047  11.0168  11.0421  11.1137
    11.1680  11.2271  11.2562  11.3164  11.3716  11.4030  11.5208  11.6062
    11.6394  11.6777  11.7313  11.7644  11.8295  11.8500  11.8582  11.9159
    11.9360  11.9886  12.0275  12.0907  12.0976  12.1148  12.1701  12.1846
    12.2358  12.2692  12.3099  12.3306  12.3849  12.3928  12.5132  12.5409
    12.5656  12.6302  12.7010  12.7405  12.7533  12.7798  12.8117  12.8269
    12.9439  12.9836  13.0582  13.7647  13.9093  14.2834  14.4434  14.5880
    14.7308  14.9986  15.1850  15.4251  15.7822  16.1588  16.2897  16.5293
    16.7510  17.0197  17.0670  17.1421  17.1871  17.2382  17.2648  17.3280
    17.3627  17.3902  17.4158  17.4503  17.4750  17.5303  17.5847  17.6378
    17.6904  17.7404  17.8527  17.9218  17.9991  18.0586  18.0897  18.3899
    18.4472  18.5698  18.7258  18.9611  19.1942  19.2346  19.3577  19.7492
    20.2402  20.5100

          k =-0.1768-0.5303 0.2721 ( 13683 PWs)   bands (ev):

   -66.5536 -66.5533 -61.8082 -61.8079 -61.8034 -61.8030 -61.7864 -61.7860
   -35.3276 -35.3274 -35.2823 -35.2770 -35.2725 -35.2723 -30.6434 -30.6424
   -30.6402 -30.6389 -30.6383 -30.6375 -30.6342 -30.6325 -30.6303 -30.6265
   -30.6250 -30.6225 -30.6189 -30.6178 -30.6101 -30.6096 -30.6090 -30.6087
     6.7519   7.5927   7.7492   8.3274   8.5858   8.6137   8.7722   8.8665
     8.8796   8.9487   9.0645   9.1008   9.1281   9.1947   9.2771   9.3140
     9.3716   9.4057   9.4426   9.5020   9.5732   9.6294   9.6554   9.6724
     9.7175   9.7605   9.7801   9.8468   9.8828   9.8864   9.9248   9.9395
     9.9924  10.0763  10.1514  10.1761  10.2107  10.2753  10.2955  10.3424
    10.3656  10.3889  10.4793  10.5017  10.5796  10.6548  10.7757  10.7927
    10.8567  10.9026  10.9099  10.9715  11.0153  11.0463  11.1261  11.1317
    11.1781  11.1948  11.2207  11.2740  11.2966  11.3835  11.4277  11.4317
    11.4860  11.5423  11.6261  11.7045  11.7179  11.7690  11.8446  11.8717
    11.8966  11.9378  11.9823  12.0111  12.0486  12.1153  12.1674  12.1940
    12.2259  12.2814  12.3321  12.3682  12.3951  12.4567  12.5247  12.5396
    12.5712  12.5970  12.6368  12.6820  12.7141  12.8654  12.9051  13.0576
    13.1779  13.2171  13.4553  13.7231  13.8410  14.3695  14.5081  14.8863
    15.0957  15.2954  15.3630  15.4463  15.5715  15.7728  16.0690  16.3551
    16.8876  17.0084  17.1393  17.1882  17.2334  17.2531  17.3083  17.3463
    17.3936  17.4187  17.4371  17.4705  17.5063  17.5359  17.5708  17.6066
    17.6352  17.7778  17.9511  17.9730  18.0356  18.0867  18.1880  18.2426
    18.3035  18.4831  18.5736  18.6614  18.7368  18.8700  19.2462  20.0632
    20.3569  20.4892

     the Fermi energy is    15.5390 ev

!    total energy              =  -14693.95242351 Ry
     Harris-Foulkes estimate   =  -14693.95240821 Ry
     estimated scf accuracy    <       0.00000053 Ry

     total all-electron energy =   -626921.548145 Ry

     The total energy is the sum of the following terms:

     one-electron contribution =    -698.58281039 Ry
     hartree contribution      =     651.68166835 Ry
     xc contribution           =    -738.09198517 Ry
     ewald contribution        =   -2207.56121140 Ry
     Hubbard energy            =       0.46347826 Ry
     one-center paw contrib.   =  -11701.86156316 Ry

     total magnetization       =    16.93 Bohr mag/cell
     absolute magnetization    =    36.79 Bohr mag/cell

     convergence has been achieved in  20 iterations

     Writing output data file mnau2.save/
 
     init_run     :     25.93s CPU     26.95s WALL (       1 calls)
     electrons    :   1187.63s CPU   1220.98s WALL (       1 calls)

     Called by init_run:
     wfcinit      :     23.60s CPU     24.51s WALL (       1 calls)
     potinit      :      1.18s CPU      1.21s WALL (       1 calls)
     hinit0       :      0.69s CPU      0.72s WALL (       1 calls)

     Called by electrons:
     c_bands      :   1037.88s CPU   1066.01s WALL (      20 calls)
     sum_band     :    126.67s CPU    130.96s WALL (      20 calls)
     v_of_rho     :      1.87s CPU      1.89s WALL (      21 calls)
     newd         :      6.98s CPU      7.74s WALL (      21 calls)
     PAW_pot      :     14.83s CPU     14.90s WALL (      21 calls)
     mix_rho      :      0.31s CPU      0.33s WALL (      20 calls)

     Called by c_bands:
     init_us_2    :     10.41s CPU     10.46s WALL (    3024 calls)
     cegterg      :    988.43s CPU   1015.91s WALL (    1440 calls)

     Called by sum_band:
     sum_band:bec :      1.22s CPU      1.22s WALL (    1440 calls)
     addusdens    :     13.18s CPU     14.51s WALL (      20 calls)

     Called by *egterg:
     h_psi        :    430.77s CPU    444.35s WALL (    5267 calls)
     s_psi        :     64.99s CPU     65.21s WALL (    5339 calls)
     g_psi        :      2.33s CPU      2.34s WALL (    3755 calls)
     cdiaghg      :    360.31s CPU    367.26s WALL (    5195 calls)

     Called by h_psi:
     h_psi:pot    :    406.19s CPU    416.98s WALL (    5267 calls)
     h_psi:calbec :     62.19s CPU     64.99s WALL (    5267 calls)
     vloc_psi     :    280.89s CPU    288.08s WALL (    5267 calls)
     add_vuspsi   :     63.07s CPU     63.89s WALL (    5267 calls)
     vhpsi        :     21.46s CPU     21.56s WALL (    5267 calls)

     General routines
     calbec       :    102.14s CPU    105.89s WALL (   13486 calls)
     fft          :      0.94s CPU      0.97s WALL (     521 calls)
     ffts         :      0.04s CPU      0.05s WALL (      82 calls)
     fftw         :    312.40s CPU    320.17s WALL ( 1401596 calls)
     interpolate  :      0.11s CPU      0.11s WALL (      42 calls)
     davcio       :      0.00s CPU      1.67s WALL (      72 calls)
 
     Parallel routines
     fft_scatt_xy :     40.26s CPU     41.19s WALL ( 1402199 calls)
     fft_scatt_yz :    100.86s CPU    103.70s WALL ( 1402199 calls)

     Hubbard U routines
     new_ns       :      5.95s CPU      6.31s WALL (      20 calls)
     vhpsi        :     21.46s CPU     21.56s WALL (    5267 calls)
 
     PWSCF        : 20m19.55s CPU    21m10.83s WALL

 
   This run was terminated on:  12:25:34  26Mar2019            

=------------------------------------------------------------------------------=
   JOB DONE.
=------------------------------------------------------------------------------=
