
     Program PWSCF v.6.3MaX starts on 26Mar2019 at 12:25:34 

     This program is part of the open-source Quantum ESPRESSO suite
     for quantum simulation of materials; please cite
         "P. Giannozzi et al., J. Phys.:Condens. Matter 21 395502 (2009);
         "P. Giannozzi et al., J. Phys.:Condens. Matter 29 465901 (2017);
          URL http://www.quantum-espresso.org", 
     in publications or presentations arising from this work. More details at
     http://www.quantum-espresso.org/quote

     Parallel version (MPI), running on    16 processors

     MPI processes distributed on     1 nodes
     R & G space division:  proc/nbgrp/npool/nimage =      16
     Waiting for input...
     Reading input from standard input

     Current dimensions of program PWSCF are:
     Max number of different atomic species (ntypx) = 10
     Max number of k-points (npk) =  40000
     Max angular momentum in pseudopotentials (lmaxx) =  3
     Message from routine read_upf::
     Pseudo file ./pseudo/Mn.pbe-spn-kjpaw_psl.0.3.1.UPF has been successfully fixed on the fly.
To avoid this message in the future you can permanently fix 
 your pseudo files following instructions given in: 
https://gitlab.com/QEF/q-e/blob/master/upftools/how_to_fix_upf.md
               file Mn.pbe-spn-kjpaw_psl.0.3.1.UPF: wavefunction(s)  3P 3D renormalized
     Message from routine read_upf::
     Pseudo file ./pseudo/Mn.pbe-spn-kjpaw_psl.0.3.1.UPF has been successfully fixed on the fly.
To avoid this message in the future you can permanently fix 
 your pseudo files following instructions given in: 
https://gitlab.com/QEF/q-e/blob/master/upftools/how_to_fix_upf.md
               file Mn.pbe-spn-kjpaw_psl.0.3.1.UPF: wavefunction(s)  3P 3D renormalized
     Message from routine read_upf::
     Pseudo file ./pseudo/Au.pbe-dn-kjpaw_psl.0.1.UPF has been successfully fixed on the fly.
To avoid this message in the future you can permanently fix 
 your pseudo files following instructions given in: 
https://gitlab.com/QEF/q-e/blob/master/upftools/how_to_fix_upf.md
               file Au.pbe-dn-kjpaw_psl.0.1.UPF: wavefunction(s)  6S 6P 5D renormalized

     Subspace diagonalization in iterative solution of the eigenvalue problem:
     one sub-group per band group will be used
     scalapack distributed-memory algorithm (size of sub-group:  2*  2 procs)

 
     Parallelization info
     --------------------
     sticks:   dense  smooth     PW     G-vecs:    dense   smooth      PW
     Min         646     290     84                22663     6843    1075
     Max         647     291     85                22664     6844    1077
     Sum       10349    4645   1353               362619   109493   17211
 


     bravais-lattice index     =            0
     lattice parameter (alat)  =      18.0125  a.u.
     unit-cell volume          =    2685.0513 (a.u.)^3
     number of atoms/cell      =           24
     number of atomic types    =            3
     number of electrons       =       296.00
     number of Kohn-Sham states=          178
     kinetic-energy cutoff     =      45.0000  Ry
     charge density cutoff     =     400.0000  Ry
     convergence threshold     =      1.0E-06
     mixing beta               =       0.1000
     number of iterations used =            8  plain     mixing
     Exchange-correlation      = SLA PW PBX PBC ( 1  4  3  4 0 0)

     celldm(1)=  18.012490  celldm(2)=   0.000000  celldm(3)=   0.000000
     celldm(4)=   0.000000  celldm(5)=   0.000000  celldm(6)=   0.000000

     crystal axes: (cart. coord. in units of alat)
               a(1) = (   0.707107  -0.707107   0.000000 )  
               a(2) = (  -0.707107  -0.707107   0.000000 )  
               a(3) = (   0.176777   0.176777  -0.459443 )  

     reciprocal axes: (cart. coord. in units 2 pi/alat)
               b(1) = (  0.707107 -0.707107  0.000000 )  
               b(2) = ( -0.707107 -0.707107 -0.544138 )  
               b(3) = (  0.000000  0.000000 -2.176550 )  


     PseudoPot. # 1 for Mn read from file:
     ./pseudo/Mn.pbe-spn-kjpaw_psl.0.3.1.UPF
     MD5 check sum: 7eef95dd2aae66803482eea66ebeebf1
     Pseudo is Projector augmented-wave + core cor, Zval = 15.0
     Generated using "atomic" code by A. Dal Corso v.5.0.99 svn rev. 10869
     Shape of augmentation charge: PSQ
     Using radial grid of 1187 points,  6 beta functions with: 
                l(1) =   0
                l(2) =   0
                l(3) =   1
                l(4) =   1
                l(5) =   2
                l(6) =   2
     Q(r) pseudized with 0 coefficients 


     PseudoPot. # 2 for Mn read from file:
     ./pseudo/Mn.pbe-spn-kjpaw_psl.0.3.1.UPF
     MD5 check sum: 7eef95dd2aae66803482eea66ebeebf1
     Pseudo is Projector augmented-wave + core cor, Zval = 15.0
     Generated using "atomic" code by A. Dal Corso v.5.0.99 svn rev. 10869
     Shape of augmentation charge: PSQ
     Using radial grid of 1187 points,  6 beta functions with: 
                l(1) =   0
                l(2) =   0
                l(3) =   1
                l(4) =   1
                l(5) =   2
                l(6) =   2
     Q(r) pseudized with 0 coefficients 


     PseudoPot. # 3 for Au read from file:
     ./pseudo/Au.pbe-dn-kjpaw_psl.0.1.UPF
     MD5 check sum: 5c9b92683623e7ae2ab3f8e525febab6
     Pseudo is Projector augmented-wave + core cor, Zval = 11.0
     Generated using "atomic" code by A. Dal Corso v.5.0.2 svn rev. 9415
     Shape of augmentation charge: PSQ
     Using radial grid of 1279 points,  6 beta functions with: 
                l(1) =   0
                l(2) =   0
                l(3) =   1
                l(4) =   1
                l(5) =   2
                l(6) =   2
     Q(r) pseudized with 0 coefficients 


     atomic species   valence    mass     pseudopotential
        Mn1           15.00    54.93800     Mn( 1.00)
        Mn2           15.00    54.93800     Mn( 1.00)
        Au            11.00   196.96600     Au( 1.00)

     Starting magnetic structure 
     atomic species   magnetization
        Mn1          1.000
        Mn2         -1.000
        Au           0.000


     Full LDA+U calculation (l_max = 2) with parameters (eV):
     U(  1) =   3.1200   J(  1) =   0.7000   B(  1) =   0.0803
     U(  2) =   3.1200   J(  2) =   0.7000   B(  2) =   0.0803



      4 Sym. Ops., with inversion, found



   Cartesian axes

     site n.     atom                  positions (alat units)
         1           Mn1 tau(   1) = (   0.3535534  -0.3535534   0.0000000  )
         2           Mn2 tau(   2) = (   0.0000000   0.0000000   0.0000000  )
         3           Mn1 tau(   3) = (   0.0000000  -0.3535534   0.0000000  )
         4           Mn1 tau(   4) = (   0.3535534  -0.7071068   0.0000000  )
         5           Mn1 tau(   5) = (  -0.3535534  -0.3535534   0.0000000  )
         6           Mn1 tau(   6) = (   0.0000000  -0.7071068   0.0000000  )
         7           Mn1 tau(   7) = (  -0.3535534  -0.7071068   0.0000000  )
         8           Mn1 tau(   8) = (   0.0000000  -1.0606602   0.0000000  )
         9           Au  tau(   9) = (  -0.1767767  -0.1767767  -0.1470216  )
        10           Au  tau(  10) = (   0.1767767  -0.5303301  -0.1470216  )
        11           Au  tau(  11) = (  -0.1767767  -0.5303301  -0.1470216  )
        12           Au  tau(  12) = (   0.1767767  -0.8838835  -0.1470216  )
        13           Au  tau(  13) = (  -0.5303301  -0.5303301  -0.1470216  )
        14           Au  tau(  14) = (  -0.1767767  -0.8838835  -0.1470216  )
        15           Au  tau(  15) = (   0.5303301  -0.5303301  -0.1470216  )
        16           Au  tau(  16) = (   0.1767767  -0.1767767  -0.1470216  )
        17           Au  tau(  17) = (   0.3535534  -0.3535534  -0.3124210  )
        18           Au  tau(  18) = (   0.0000000   0.0000000  -0.3124210  )
        19           Au  tau(  19) = (   0.0000000  -0.3535534  -0.3124210  )
        20           Au  tau(  20) = (   0.3535534  -0.7071068  -0.3124210  )
        21           Au  tau(  21) = (  -0.3535534  -0.3535534  -0.3124210  )
        22           Au  tau(  22) = (  -0.0000000  -0.7071068  -0.3124210  )
        23           Au  tau(  23) = (  -0.3535534  -0.7071068  -0.3124210  )
        24           Au  tau(  24) = (   0.0000000  -1.0606602  -0.3124210  )

     number of k points=    30 (tetrahedron method)
                       cart. coord. in units 2pi/alat
        k(    1) = (   0.0000000   0.0000000   0.0000000), wk =   0.0156250
        k(    2) = (   0.0000000   0.0000000  -0.5441376), wk =   0.0312500
        k(    3) = (   0.0000000   0.0000000   1.0882752), wk =   0.0156250
        k(    4) = (  -0.1767767  -0.1767767  -0.1360344), wk =   0.0312500
        k(    5) = (  -0.1767767  -0.1767767  -0.6801720), wk =   0.0312500
        k(    6) = (  -0.1767767  -0.1767767   0.9522408), wk =   0.0312500
        k(    7) = (  -0.1767767  -0.1767767   0.4081032), wk =   0.0312500
        k(    8) = (   0.3535534   0.3535534   0.2720688), wk =   0.0156250
        k(    9) = (   0.3535534   0.3535534  -0.2720688), wk =   0.0312500
        k(   10) = (   0.3535534   0.3535534   1.3603439), wk =   0.0156250
        k(   11) = (   0.1767767  -0.1767767   0.0000000), wk =   0.0312500
        k(   12) = (   0.1767767  -0.1767767  -0.5441376), wk =   0.0625000
        k(   13) = (   0.1767767  -0.1767767   1.0882752), wk =   0.0312500
        k(   14) = (   0.0000000  -0.3535534  -0.1360344), wk =   0.0625000
        k(   15) = (   0.0000000  -0.3535534  -0.6801720), wk =   0.0625000
        k(   16) = (   0.0000000  -0.3535534   0.9522408), wk =   0.0625000
        k(   17) = (   0.0000000  -0.3535534   0.4081032), wk =   0.0625000
        k(   18) = (   0.5303301   0.1767767   0.2720688), wk =   0.0312500
        k(   19) = (   0.5303301   0.1767767  -0.2720688), wk =   0.0625000
        k(   20) = (   0.5303301   0.1767767   1.3603439), wk =   0.0312500
        k(   21) = (  -0.3535534   0.3535534   0.0000000), wk =   0.0156250
        k(   22) = (  -0.3535534   0.3535534  -0.5441376), wk =   0.0312500
        k(   23) = (  -0.3535534   0.3535534   1.0882752), wk =   0.0156250
        k(   24) = (  -0.5303301   0.1767767  -0.1360344), wk =   0.0312500
        k(   25) = (  -0.5303301   0.1767767  -0.6801720), wk =   0.0312500
        k(   26) = (  -0.5303301   0.1767767   0.9522408), wk =   0.0312500
        k(   27) = (  -0.5303301   0.1767767   0.4081032), wk =   0.0312500
        k(   28) = (   0.0000000   0.7071068   0.2720688), wk =   0.0156250
        k(   29) = (   0.0000000   0.7071068  -0.2720688), wk =   0.0312500
        k(   30) = (   0.0000000   0.7071068   1.3603439), wk =   0.0156250

     Dense  grid:   362619 G-vectors     FFT dimensions: ( 120, 120,  60)

     Smooth grid:   109493 G-vectors     FFT dimensions: (  80,  80,  45)

     Estimated max dynamical RAM per process >     286.87 MB

     Estimated total dynamical RAM >       4.48 GB
     Generating pointlists ...
     new r_m :   0.1196 (alat units)  2.1549 (a.u.) for type    1
     new r_m :   0.1196 (alat units)  2.1549 (a.u.) for type    2
     new r_m :   0.1196 (alat units)  2.1549 (a.u.) for type    3

     Check: negative/imaginary core charge=   -0.000006    0.000000

     Initial potential from superposition of free atoms

     starting charge  295.99426, renormalised to  296.00000
     Number of +U iterations with fixed ns =  0
     Starting occupations:
 --- enter write_ns ---
 LDA+U parameters:
U(  1) =   3.1200   J(  1) =   0.7000   B(  1) =   0.0803
U(  2) =   3.1200   J(  2) =   0.7000   B(  2) =   0.0803
atom    1   Tr[ns(na)] (up, down, total) =   5.00000  0.00000  5.00000
   spin  1
    eigenvalues: 
  1.000  1.000  1.000  1.000  1.000
    eigenvectors:
  1.000  0.000  0.000  0.000  0.000
  0.000  1.000  0.000  0.000  0.000
  0.000  0.000  1.000  0.000  0.000
  0.000  0.000  0.000  1.000  0.000
  0.000  0.000  0.000  0.000  1.000
    occupations:
  1.000  0.000  0.000  0.000  0.000
  0.000  1.000  0.000  0.000  0.000
  0.000  0.000  1.000  0.000  0.000
  0.000  0.000  0.000  1.000  0.000
  0.000  0.000  0.000  0.000  1.000
   spin  2
    eigenvalues: 
  0.000  0.000  0.000  0.000  0.000
    eigenvectors:
  1.000  0.000  0.000  0.000  0.000
  0.000  1.000  0.000  0.000  0.000
  0.000  0.000  1.000  0.000  0.000
  0.000  0.000  0.000  1.000  0.000
  0.000  0.000  0.000  0.000  1.000
    occupations:
  0.000  0.000  0.000  0.000  0.000
  0.000  0.000  0.000  0.000  0.000
  0.000  0.000  0.000  0.000  0.000
  0.000  0.000  0.000  0.000  0.000
  0.000  0.000  0.000  0.000  0.000
atomic mag. moment =     5.000000
atom    2   Tr[ns(na)] (up, down, total) =   0.00000  5.00000  5.00000
   spin  1
    eigenvalues: 
  0.000  0.000  0.000  0.000  0.000
    eigenvectors:
  1.000  0.000  0.000  0.000  0.000
  0.000  1.000  0.000  0.000  0.000
  0.000  0.000  1.000  0.000  0.000
  0.000  0.000  0.000  1.000  0.000
  0.000  0.000  0.000  0.000  1.000
    occupations:
  0.000  0.000  0.000  0.000  0.000
  0.000  0.000  0.000  0.000  0.000
  0.000  0.000  0.000  0.000  0.000
  0.000  0.000  0.000  0.000  0.000
  0.000  0.000  0.000  0.000  0.000
   spin  2
    eigenvalues: 
  1.000  1.000  1.000  1.000  1.000
    eigenvectors:
  1.000  0.000  0.000  0.000  0.000
  0.000  1.000  0.000  0.000  0.000
  0.000  0.000  1.000  0.000  0.000
  0.000  0.000  0.000  1.000  0.000
  0.000  0.000  0.000  0.000  1.000
    occupations:
  1.000  0.000  0.000  0.000  0.000
  0.000  1.000  0.000  0.000  0.000
  0.000  0.000  1.000  0.000  0.000
  0.000  0.000  0.000  1.000  0.000
  0.000  0.000  0.000  0.000  1.000
atomic mag. moment =    -5.000000
atom    3   Tr[ns(na)] (up, down, total) =   5.00000  0.00000  5.00000
   spin  1
    eigenvalues: 
  1.000  1.000  1.000  1.000  1.000
    eigenvectors:
  1.000  0.000  0.000  0.000  0.000
  0.000  1.000  0.000  0.000  0.000
  0.000  0.000  1.000  0.000  0.000
  0.000  0.000  0.000  1.000  0.000
  0.000  0.000  0.000  0.000  1.000
    occupations:
  1.000  0.000  0.000  0.000  0.000
  0.000  1.000  0.000  0.000  0.000
  0.000  0.000  1.000  0.000  0.000
  0.000  0.000  0.000  1.000  0.000
  0.000  0.000  0.000  0.000  1.000
   spin  2
    eigenvalues: 
  0.000  0.000  0.000  0.000  0.000
    eigenvectors:
  1.000  0.000  0.000  0.000  0.000
  0.000  1.000  0.000  0.000  0.000
  0.000  0.000  1.000  0.000  0.000
  0.000  0.000  0.000  1.000  0.000
  0.000  0.000  0.000  0.000  1.000
    occupations:
  0.000  0.000  0.000  0.000  0.000
  0.000  0.000  0.000  0.000  0.000
  0.000  0.000  0.000  0.000  0.000
  0.000  0.000  0.000  0.000  0.000
  0.000  0.000  0.000  0.000  0.000
atomic mag. moment =     5.000000
atom    4   Tr[ns(na)] (up, down, total) =   5.00000  0.00000  5.00000
   spin  1
    eigenvalues: 
  1.000  1.000  1.000  1.000  1.000
    eigenvectors:
  1.000  0.000  0.000  0.000  0.000
  0.000  1.000  0.000  0.000  0.000
  0.000  0.000  1.000  0.000  0.000
  0.000  0.000  0.000  1.000  0.000
  0.000  0.000  0.000  0.000  1.000
    occupations:
  1.000  0.000  0.000  0.000  0.000
  0.000  1.000  0.000  0.000  0.000
  0.000  0.000  1.000  0.000  0.000
  0.000  0.000  0.000  1.000  0.000
  0.000  0.000  0.000  0.000  1.000
   spin  2
    eigenvalues: 
  0.000  0.000  0.000  0.000  0.000
    eigenvectors:
  1.000  0.000  0.000  0.000  0.000
  0.000  1.000  0.000  0.000  0.000
  0.000  0.000  1.000  0.000  0.000
  0.000  0.000  0.000  1.000  0.000
  0.000  0.000  0.000  0.000  1.000
    occupations:
  0.000  0.000  0.000  0.000  0.000
  0.000  0.000  0.000  0.000  0.000
  0.000  0.000  0.000  0.000  0.000
  0.000  0.000  0.000  0.000  0.000
  0.000  0.000  0.000  0.000  0.000
atomic mag. moment =     5.000000
atom    5   Tr[ns(na)] (up, down, total) =   5.00000  0.00000  5.00000
   spin  1
    eigenvalues: 
  1.000  1.000  1.000  1.000  1.000
    eigenvectors:
  1.000  0.000  0.000  0.000  0.000
  0.000  1.000  0.000  0.000  0.000
  0.000  0.000  1.000  0.000  0.000
  0.000  0.000  0.000  1.000  0.000
  0.000  0.000  0.000  0.000  1.000
    occupations:
  1.000  0.000  0.000  0.000  0.000
  0.000  1.000  0.000  0.000  0.000
  0.000  0.000  1.000  0.000  0.000
  0.000  0.000  0.000  1.000  0.000
  0.000  0.000  0.000  0.000  1.000
   spin  2
    eigenvalues: 
  0.000  0.000  0.000  0.000  0.000
    eigenvectors:
  1.000  0.000  0.000  0.000  0.000
  0.000  1.000  0.000  0.000  0.000
  0.000  0.000  1.000  0.000  0.000
  0.000  0.000  0.000  1.000  0.000
  0.000  0.000  0.000  0.000  1.000
    occupations:
  0.000  0.000  0.000  0.000  0.000
  0.000  0.000  0.000  0.000  0.000
  0.000  0.000  0.000  0.000  0.000
  0.000  0.000  0.000  0.000  0.000
  0.000  0.000  0.000  0.000  0.000
atomic mag. moment =     5.000000
atom    6   Tr[ns(na)] (up, down, total) =   5.00000  0.00000  5.00000
   spin  1
    eigenvalues: 
  1.000  1.000  1.000  1.000  1.000
    eigenvectors:
  1.000  0.000  0.000  0.000  0.000
  0.000  1.000  0.000  0.000  0.000
  0.000  0.000  1.000  0.000  0.000
  0.000  0.000  0.000  1.000  0.000
  0.000  0.000  0.000  0.000  1.000
    occupations:
  1.000  0.000  0.000  0.000  0.000
  0.000  1.000  0.000  0.000  0.000
  0.000  0.000  1.000  0.000  0.000
  0.000  0.000  0.000  1.000  0.000
  0.000  0.000  0.000  0.000  1.000
   spin  2
    eigenvalues: 
  0.000  0.000  0.000  0.000  0.000
    eigenvectors:
  1.000  0.000  0.000  0.000  0.000
  0.000  1.000  0.000  0.000  0.000
  0.000  0.000  1.000  0.000  0.000
  0.000  0.000  0.000  1.000  0.000
  0.000  0.000  0.000  0.000  1.000
    occupations:
  0.000  0.000  0.000  0.000  0.000
  0.000  0.000  0.000  0.000  0.000
  0.000  0.000  0.000  0.000  0.000
  0.000  0.000  0.000  0.000  0.000
  0.000  0.000  0.000  0.000  0.000
atomic mag. moment =     5.000000
atom    7   Tr[ns(na)] (up, down, total) =   5.00000  0.00000  5.00000
   spin  1
    eigenvalues: 
  1.000  1.000  1.000  1.000  1.000
    eigenvectors:
  1.000  0.000  0.000  0.000  0.000
  0.000  1.000  0.000  0.000  0.000
  0.000  0.000  1.000  0.000  0.000
  0.000  0.000  0.000  1.000  0.000
  0.000  0.000  0.000  0.000  1.000
    occupations:
  1.000  0.000  0.000  0.000  0.000
  0.000  1.000  0.000  0.000  0.000
  0.000  0.000  1.000  0.000  0.000
  0.000  0.000  0.000  1.000  0.000
  0.000  0.000  0.000  0.000  1.000
   spin  2
    eigenvalues: 
  0.000  0.000  0.000  0.000  0.000
    eigenvectors:
  1.000  0.000  0.000  0.000  0.000
  0.000  1.000  0.000  0.000  0.000
  0.000  0.000  1.000  0.000  0.000
  0.000  0.000  0.000  1.000  0.000
  0.000  0.000  0.000  0.000  1.000
    occupations:
  0.000  0.000  0.000  0.000  0.000
  0.000  0.000  0.000  0.000  0.000
  0.000  0.000  0.000  0.000  0.000
  0.000  0.000  0.000  0.000  0.000
  0.000  0.000  0.000  0.000  0.000
atomic mag. moment =     5.000000
atom    8   Tr[ns(na)] (up, down, total) =   5.00000  0.00000  5.00000
   spin  1
    eigenvalues: 
  1.000  1.000  1.000  1.000  1.000
    eigenvectors:
  1.000  0.000  0.000  0.000  0.000
  0.000  1.000  0.000  0.000  0.000
  0.000  0.000  1.000  0.000  0.000
  0.000  0.000  0.000  1.000  0.000
  0.000  0.000  0.000  0.000  1.000
    occupations:
  1.000  0.000  0.000  0.000  0.000
  0.000  1.000  0.000  0.000  0.000
  0.000  0.000  1.000  0.000  0.000
  0.000  0.000  0.000  1.000  0.000
  0.000  0.000  0.000  0.000  1.000
   spin  2
    eigenvalues: 
  0.000  0.000  0.000  0.000  0.000
    eigenvectors:
  1.000  0.000  0.000  0.000  0.000
  0.000  1.000  0.000  0.000  0.000
  0.000  0.000  1.000  0.000  0.000
  0.000  0.000  0.000  1.000  0.000
  0.000  0.000  0.000  0.000  1.000
    occupations:
  0.000  0.000  0.000  0.000  0.000
  0.000  0.000  0.000  0.000  0.000
  0.000  0.000  0.000  0.000  0.000
  0.000  0.000  0.000  0.000  0.000
  0.000  0.000  0.000  0.000  0.000
atomic mag. moment =     5.000000
N of occupied +U levels =   40.000000
 --- exit write_ns ---
 Atomic wfc used for LDA+U Projector are NOT orthogonalized
     Starting wfcs are  224 randomized atomic wfcs
     Checking if some PAW data can be deallocated... 

     total cpu time spent up to now is       25.2 secs

     Self-consistent Calculation

     iteration #  1     ecut=    45.00 Ry     beta= 0.10
     Davidson diagonalization with overlap
     ethr =  1.00E-02,  avg # of iterations =  3.9
 --- enter write_ns ---
 LDA+U parameters:
U(  1) =   3.1200   J(  1) =   0.7000   B(  1) =   0.0803
U(  2) =   3.1200   J(  2) =   0.7000   B(  2) =   0.0803
atom    1   Tr[ns(na)] (up, down, total) =   5.01491  0.27120  5.28611
   spin  1
    eigenvalues: 
  1.003  1.003  1.003  1.003  1.004
    eigenvectors:
  0.000  0.000  0.001  0.999  0.000
  0.004  0.500  0.496  0.000  0.000
  0.004  0.500  0.496  0.000  0.000
  0.000  0.000  0.000  0.000  1.000
  0.993  0.000  0.007  0.000  0.000
    occupations:
  1.003 -0.000 -0.000 -0.000  0.000
 -0.000  1.003  0.000  0.000  0.000
 -0.000  0.000  1.003 -0.000  0.000
 -0.000  0.000 -0.000  1.004 -0.000
  0.000  0.000  0.000 -0.000  1.003
   spin  2
    eigenvalues: 
  0.039  0.050  0.055  0.055  0.072
    eigenvectors:
  0.000  0.986  0.013  0.000  0.001
  0.000  0.006  0.494  0.500  0.000
  0.000  0.006  0.494  0.500  0.000
  1.000  0.000  0.000  0.000  0.000
  0.000  0.001  0.000  0.000  0.999
    occupations:
  0.050  0.000  0.000 -0.000 -0.001
  0.000  0.055 -0.000  0.000 -0.000
  0.000 -0.000  0.055 -0.000 -0.000
 -0.000  0.000 -0.000  0.039 -0.000
 -0.001 -0.000 -0.000 -0.000  0.072
atomic mag. moment =     4.743706
atom    2   Tr[ns(na)] (up, down, total) =   0.27770  5.01472  5.29242
   spin  1
    eigenvalues: 
  0.043  0.054  0.055  0.055  0.071
    eigenvectors:
  0.000  0.955  0.000  0.044  0.000
  0.000  0.022  0.500  0.474  0.004
  0.000  0.022  0.500  0.474  0.004
  1.000  0.000  0.000  0.000  0.000
  0.000  0.001  0.000  0.007  0.992
    occupations:
  0.054  0.000  0.000 -0.000 -0.000
  0.000  0.055  0.000  0.000  0.001
  0.000  0.000  0.055 -0.000  0.001
 -0.000  0.000 -0.000  0.043 -0.000
 -0.000  0.001  0.001 -0.000  0.070
   spin  2
    eigenvalues: 
  1.003  1.003  1.003  1.003  1.003
    eigenvectors:
  0.001  0.000  0.000  0.999  0.000
  0.001  0.499  0.500  0.000  0.000
  0.001  0.499  0.500  0.000  0.000
  0.000  0.000  0.000  0.000  1.000
  0.998  0.001  0.000  0.001  0.000
    occupations:
  1.003  0.000  0.000 -0.000 -0.000
  0.000  1.003 -0.000 -0.000 -0.000
  0.000 -0.000  1.003  0.000 -0.000
 -0.000 -0.000  0.000  1.003 -0.000
 -0.000 -0.000 -0.000 -0.000  1.003
atomic mag. moment =    -4.737012
atom    3   Tr[ns(na)] (up, down, total) =   5.01478  0.27238  5.28717
   spin  1
    eigenvalues: 
  1.003  1.003  1.003  1.003  1.004
    eigenvectors:
  0.000  0.000  0.000  0.998  0.002
  0.000  0.048  0.952  0.000  0.000
  0.000  0.952  0.048  0.000  0.000
  0.000  0.000  0.000  0.002  0.998
  1.000  0.000  0.000  0.000  0.000
    occupations:
  1.003 -0.000  0.000 -0.000  0.000
 -0.000  1.003  0.000 -0.000 -0.000
  0.000  0.000  1.003  0.000 -0.000
 -0.000 -0.000  0.000  1.004  0.000
  0.000 -0.000 -0.000  0.000  1.003
   spin  2
    eigenvalues: 
  0.040  0.050  0.054  0.055  0.073
    eigenvectors:
  0.012  0.937  0.019  0.032  0.000
  0.000  0.004  0.848  0.148  0.001
  0.000  0.048  0.132  0.820  0.000
  0.988  0.012  0.000  0.000  0.000
  0.000  0.000  0.001  0.000  0.999
    occupations:
  0.050 -0.000  0.001  0.001 -0.000
 -0.000  0.054  0.000 -0.000  0.001
  0.001  0.000  0.055  0.000  0.000
  0.001 -0.000  0.000  0.040 -0.000
 -0.000  0.001  0.000 -0.000  0.073
atomic mag. moment =     4.742401
atom    4   Tr[ns(na)] (up, down, total) =   5.01478  0.27238  5.28717
   spin  1
    eigenvalues: 
  1.003  1.003  1.003  1.003  1.004
    eigenvectors:
  0.000  0.000  0.000  0.998  0.002
  0.000  0.952  0.048  0.000  0.000
  0.000  0.048  0.952  0.000  0.000
  0.000  0.000  0.000  0.002  0.998
  1.000  0.000  0.000  0.000  0.000
    occupations:
  1.003  0.000 -0.000  0.000  0.000
  0.000  1.003  0.000 -0.000 -0.000
 -0.000  0.000  1.003  0.000 -0.000
  0.000 -0.000  0.000  1.004 -0.000
  0.000 -0.000 -0.000 -0.000  1.003
   spin  2
    eigenvalues: 
  0.040  0.050  0.054  0.055  0.073
    eigenvectors:
  0.012  0.937  0.019  0.032  0.000
  0.000  0.048  0.132  0.820  0.000
  0.000  0.004  0.848  0.148  0.001
  0.988  0.012  0.000  0.000  0.000
  0.000  0.000  0.001  0.000  0.999
    occupations:
  0.050  0.001 -0.000 -0.001 -0.000
  0.001  0.055  0.000 -0.000  0.000
 -0.000  0.000  0.054  0.000  0.001
 -0.001 -0.000  0.000  0.040  0.000
 -0.000  0.000  0.001  0.000  0.073
atomic mag. moment =     4.742401
atom    5   Tr[ns(na)] (up, down, total) =   5.01496  0.27326  5.28822
   spin  1
    eigenvalues: 
  1.003  1.003  1.003  1.003  1.004
    eigenvectors:
  0.000  0.000  0.000  1.000  0.000
  0.001  0.499  0.500  0.000  0.000
  0.001  0.499  0.500  0.000  0.000
  0.000  0.000  0.000  0.000  1.000
  0.998  0.002  0.000  0.000  0.000
    occupations:
  1.003  0.000  0.000 -0.000  0.000
  0.000  1.003 -0.000  0.000  0.000
  0.000 -0.000  1.003 -0.000  0.000
 -0.000  0.000 -0.000  1.004 -0.000
  0.000  0.000  0.000 -0.000  1.003
   spin  2
    eigenvalues: 
  0.039  0.052  0.054  0.056  0.072
    eigenvectors:
  0.000  0.960  0.000  0.039  0.000
  0.000  0.020  0.500  0.476  0.004
  0.000  0.020  0.500  0.476  0.004
  1.000  0.000  0.000  0.000  0.000
  0.000  0.000  0.000  0.008  0.992
    occupations:
  0.052  0.001  0.001 -0.000  0.000
  0.001  0.055  0.001  0.000  0.001
  0.001  0.001  0.055 -0.000  0.001
 -0.000  0.000 -0.000  0.039 -0.000
  0.000  0.001  0.001 -0.000  0.072
atomic mag. moment =     4.741693
atom    6   Tr[ns(na)] (up, down, total) =   5.01517  0.26944  5.28461
   spin  1
    eigenvalues: 
  1.003  1.003  1.003  1.003  1.004
    eigenvectors:
  0.000  0.000  0.003  0.997  0.000
  0.000  0.499  0.498  0.002  0.001
  0.000  0.499  0.498  0.002  0.001
  0.000  0.001  0.000  0.000  0.999
  0.999  0.000  0.001  0.000  0.000
    occupations:
  1.003 -0.000 -0.000 -0.000  0.000
 -0.000  1.003  0.000  0.000  0.000
 -0.000  0.000  1.003 -0.000  0.000
 -0.000  0.000 -0.000  1.004 -0.000
  0.000  0.000  0.000 -0.000  1.003
   spin  2
    eigenvalues: 
  0.039  0.048  0.054  0.054  0.074
    eigenvectors:
  0.000  0.999  0.000  0.001  0.000
  0.000  0.000  0.500  0.500  0.000
  0.000  0.000  0.500  0.500  0.000
  1.000  0.000  0.000  0.000  0.000
  0.000  0.000  0.000  0.000  1.000
    occupations:
  0.048  0.000  0.000 -0.000 -0.000
  0.000  0.054  0.000 -0.000  0.000
  0.000  0.000  0.054  0.000  0.000
 -0.000 -0.000  0.000  0.039 -0.000
 -0.000  0.000  0.000 -0.000  0.074
atomic mag. moment =     4.745735
atom    7   Tr[ns(na)] (up, down, total) =   5.01478  0.27238  5.28717
   spin  1
    eigenvalues: 
  1.003  1.003  1.003  1.003  1.004
    eigenvectors:
  0.000  0.000  0.000  0.998  0.002
  0.000  0.952  0.048  0.000  0.000
  0.000  0.048  0.952  0.000  0.000
  0.000  0.000  0.000  0.002  0.998
  1.000  0.000  0.000  0.000  0.000
    occupations:
  1.003  0.000 -0.000  0.000  0.000
  0.000  1.003  0.000 -0.000 -0.000
 -0.000  0.000  1.003  0.000 -0.000
  0.000 -0.000  0.000  1.004 -0.000
  0.000 -0.000 -0.000 -0.000  1.003
   spin  2
    eigenvalues: 
  0.040  0.050  0.054  0.055  0.073
    eigenvectors:
  0.012  0.937  0.019  0.032  0.000
  0.000  0.048  0.132  0.820  0.000
  0.000  0.004  0.848  0.148  0.001
  0.988  0.012  0.000  0.000  0.000
  0.000  0.000  0.001  0.000  0.999
    occupations:
  0.050  0.001 -0.000 -0.001 -0.000
  0.001  0.055  0.000 -0.000  0.000
 -0.000  0.000  0.054  0.000  0.001
 -0.001 -0.000  0.000  0.040  0.000
 -0.000  0.000  0.001  0.000  0.073
atomic mag. moment =     4.742401
atom    8   Tr[ns(na)] (up, down, total) =   5.01478  0.27238  5.28717
   spin  1
    eigenvalues: 
  1.003  1.003  1.003  1.003  1.004
    eigenvectors:
  0.000  0.000  0.000  0.998  0.002
  0.000  0.048  0.952  0.000  0.000
  0.000  0.952  0.048  0.000  0.000
  0.000  0.000  0.000  0.002  0.998
  1.000  0.000  0.000  0.000  0.000
    occupations:
  1.003 -0.000  0.000 -0.000  0.000
 -0.000  1.003  0.000 -0.000 -0.000
  0.000  0.000  1.003  0.000 -0.000
 -0.000 -0.000  0.000  1.004  0.000
  0.000 -0.000 -0.000  0.000  1.003
   spin  2
    eigenvalues: 
  0.040  0.050  0.054  0.055  0.073
    eigenvectors:
  0.012  0.937  0.019  0.032  0.000
  0.000  0.004  0.848  0.148  0.001
  0.000  0.048  0.132  0.820  0.000
  0.988  0.012  0.000  0.000  0.000
  0.000  0.000  0.001  0.000  0.999
    occupations:
  0.050 -0.000  0.001  0.001 -0.000
 -0.000  0.054  0.000 -0.000  0.001
  0.001  0.000  0.055  0.000  0.000
  0.001 -0.000  0.000  0.040 -0.000
 -0.000  0.001  0.000 -0.000  0.073
atomic mag. moment =     4.742401
N of occupied +U levels =   42.300037
 --- exit write_ns ---

     total cpu time spent up to now is       92.4 secs

     total energy              =  -14679.13944995 Ry
     Harris-Foulkes estimate   =  -14669.73603109 Ry
     estimated scf accuracy    <      21.26829505 Ry

     total magnetization       =    31.40 Bohr mag/cell
     absolute magnetization    =    43.57 Bohr mag/cell

     iteration #  2     ecut=    45.00 Ry     beta= 0.10
     Davidson diagonalization with overlap
     ethr =  7.19E-03,  avg # of iterations =  1.0

     total cpu time spent up to now is      130.8 secs

     total energy              =  -14692.21079588 Ry
     Harris-Foulkes estimate   =  -14679.24502559 Ry
     estimated scf accuracy    <      17.17646076 Ry

     total magnetization       =    30.97 Bohr mag/cell
     absolute magnetization    =    43.16 Bohr mag/cell

     iteration #  3     ecut=    45.00 Ry     beta= 0.10
     Davidson diagonalization with overlap
     ethr =  5.80E-03,  avg # of iterations =  2.1

     total cpu time spent up to now is      177.0 secs

     total energy              =  -14694.02040571 Ry
     Harris-Foulkes estimate   =  -14693.89301150 Ry
     estimated scf accuracy    <       4.11659273 Ry

     total magnetization       =    27.95 Bohr mag/cell
     absolute magnetization    =    39.03 Bohr mag/cell

     iteration #  4     ecut=    45.00 Ry     beta= 0.10
     Davidson diagonalization with overlap
     ethr =  1.39E-03,  avg # of iterations =  3.8

     total cpu time spent up to now is      234.0 secs

     total energy              =  -14693.44368838 Ry
     Harris-Foulkes estimate   =  -14694.06784704 Ry
     estimated scf accuracy    <       4.65551717 Ry

     total magnetization       =    27.79 Bohr mag/cell
     absolute magnetization    =    38.72 Bohr mag/cell

     iteration #  5     ecut=    45.00 Ry     beta= 0.10
     Davidson diagonalization with overlap
     ethr =  1.39E-03,  avg # of iterations =  4.9

     total cpu time spent up to now is      302.2 secs

     total energy              =  -14693.87835621 Ry
     Harris-Foulkes estimate   =  -14693.86942391 Ry
     estimated scf accuracy    <       0.27172766 Ry

     total magnetization       =    26.90 Bohr mag/cell
     absolute magnetization    =    37.85 Bohr mag/cell

     iteration #  6     ecut=    45.00 Ry     beta= 0.10
     Davidson diagonalization with overlap
     ethr =  9.18E-05,  avg # of iterations =  4.0

     total cpu time spent up to now is      384.1 secs

     total energy              =  -14694.01396066 Ry
     Harris-Foulkes estimate   =  -14693.97093896 Ry
     estimated scf accuracy    <       0.29821863 Ry

     total magnetization       =    25.97 Bohr mag/cell
     absolute magnetization    =    36.95 Bohr mag/cell

     iteration #  7     ecut=    45.00 Ry     beta= 0.10
     Davidson diagonalization with overlap
     ethr =  9.18E-05,  avg # of iterations =  1.3

     total cpu time spent up to now is      424.1 secs

     total energy              =  -14693.97589992 Ry
     Harris-Foulkes estimate   =  -14694.03020340 Ry
     estimated scf accuracy    <       0.75394933 Ry

     total magnetization       =    25.73 Bohr mag/cell
     absolute magnetization    =    36.73 Bohr mag/cell

     iteration #  8     ecut=    45.00 Ry     beta= 0.10
     Davidson diagonalization with overlap
     ethr =  9.18E-05,  avg # of iterations =  1.1

     total cpu time spent up to now is      463.0 secs

     total energy              =  -14693.92202351 Ry
     Harris-Foulkes estimate   =  -14693.98669366 Ry
     estimated scf accuracy    <       0.35520874 Ry

     total magnetization       =    25.85 Bohr mag/cell
     absolute magnetization    =    36.85 Bohr mag/cell

     iteration #  9     ecut=    45.00 Ry     beta= 0.10
     Davidson diagonalization with overlap
     ethr =  9.18E-05,  avg # of iterations =  2.1

     total cpu time spent up to now is      512.2 secs

     total energy              =  -14693.96158191 Ry
     Harris-Foulkes estimate   =  -14693.95893046 Ry
     estimated scf accuracy    <       0.01405814 Ry

     total magnetization       =    25.85 Bohr mag/cell
     absolute magnetization    =    36.88 Bohr mag/cell

     iteration # 10     ecut=    45.00 Ry     beta= 0.10
     Davidson diagonalization with overlap
     c_bands:  1 eigenvalues not converged
     ethr =  4.75E-06,  avg # of iterations =  3.0

     total cpu time spent up to now is      562.5 secs

     total energy              =  -14693.96045973 Ry
     Harris-Foulkes estimate   =  -14693.96230051 Ry
     estimated scf accuracy    <       0.01691071 Ry

     total magnetization       =    25.77 Bohr mag/cell
     absolute magnetization    =    36.83 Bohr mag/cell

     iteration # 11     ecut=    45.00 Ry     beta= 0.10
     Davidson diagonalization with overlap
     ethr =  4.75E-06,  avg # of iterations =  3.8

     total cpu time spent up to now is      632.8 secs

     total energy              =  -14693.96457638 Ry
     Harris-Foulkes estimate   =  -14693.96482735 Ry
     estimated scf accuracy    <       0.00423354 Ry

     total magnetization       =    25.76 Bohr mag/cell
     absolute magnetization    =    36.86 Bohr mag/cell

     iteration # 12     ecut=    45.00 Ry     beta= 0.10
     Davidson diagonalization with overlap
     ethr =  1.43E-06,  avg # of iterations =  1.6

     total cpu time spent up to now is      674.0 secs

     total energy              =  -14693.96489543 Ry
     Harris-Foulkes estimate   =  -14693.96481240 Ry
     estimated scf accuracy    <       0.00110760 Ry

     total magnetization       =    25.71 Bohr mag/cell
     absolute magnetization    =    36.81 Bohr mag/cell

     iteration # 13     ecut=    45.00 Ry     beta= 0.10
     Davidson diagonalization with overlap
     ethr =  3.74E-07,  avg # of iterations =  2.9

     total cpu time spent up to now is      730.5 secs

     total energy              =  -14693.96518989 Ry
     Harris-Foulkes estimate   =  -14693.96512842 Ry
     estimated scf accuracy    <       0.00048982 Ry

     total magnetization       =    25.65 Bohr mag/cell
     absolute magnetization    =    36.78 Bohr mag/cell

     iteration # 14     ecut=    45.00 Ry     beta= 0.10
     Davidson diagonalization with overlap
     ethr =  1.65E-07,  avg # of iterations =  2.5

     total cpu time spent up to now is      779.0 secs

     total energy              =  -14693.96541413 Ry
     Harris-Foulkes estimate   =  -14693.96526488 Ry
     estimated scf accuracy    <       0.00023520 Ry

     total magnetization       =    25.65 Bohr mag/cell
     absolute magnetization    =    36.79 Bohr mag/cell

     iteration # 15     ecut=    45.00 Ry     beta= 0.10
     Davidson diagonalization with overlap
     ethr =  7.95E-08,  avg # of iterations =  1.8

     total cpu time spent up to now is      821.9 secs

     total energy              =  -14693.96548395 Ry
     Harris-Foulkes estimate   =  -14693.96543344 Ry
     estimated scf accuracy    <       0.00006550 Ry

     total magnetization       =    25.61 Bohr mag/cell
     absolute magnetization    =    36.77 Bohr mag/cell

     iteration # 16     ecut=    45.00 Ry     beta= 0.10
     Davidson diagonalization with overlap
     ethr =  2.21E-08,  avg # of iterations =  2.6

     total cpu time spent up to now is      873.0 secs

     total energy              =  -14693.96549868 Ry
     Harris-Foulkes estimate   =  -14693.96548400 Ry
     estimated scf accuracy    <       0.00001742 Ry

     total magnetization       =    25.59 Bohr mag/cell
     absolute magnetization    =    36.76 Bohr mag/cell

     iteration # 17     ecut=    45.00 Ry     beta= 0.10
     Davidson diagonalization with overlap
     ethr =  5.89E-09,  avg # of iterations =  2.5

     total cpu time spent up to now is      919.9 secs

     total energy              =  -14693.96550171 Ry
     Harris-Foulkes estimate   =  -14693.96549461 Ry
     estimated scf accuracy    <       0.00000874 Ry

     total magnetization       =    25.58 Bohr mag/cell
     absolute magnetization    =    36.76 Bohr mag/cell

     iteration # 18     ecut=    45.00 Ry     beta= 0.10
     Davidson diagonalization with overlap
     ethr =  2.95E-09,  avg # of iterations =  2.1

     total cpu time spent up to now is      963.7 secs

     total energy              =  -14693.96550611 Ry
     Harris-Foulkes estimate   =  -14693.96549934 Ry
     estimated scf accuracy    <       0.00000551 Ry

     total magnetization       =    25.58 Bohr mag/cell
     absolute magnetization    =    36.76 Bohr mag/cell

     iteration # 19     ecut=    45.00 Ry     beta= 0.10
     Davidson diagonalization with overlap
     ethr =  1.86E-09,  avg # of iterations =  2.1

     total cpu time spent up to now is     1008.0 secs

     total energy              =  -14693.96550991 Ry
     Harris-Foulkes estimate   =  -14693.96550620 Ry
     estimated scf accuracy    <       0.00000268 Ry

     total magnetization       =    25.58 Bohr mag/cell
     absolute magnetization    =    36.76 Bohr mag/cell

     iteration # 20     ecut=    45.00 Ry     beta= 0.10
     Davidson diagonalization with overlap
     ethr =  9.07E-10,  avg # of iterations =  2.2
 
     Magnetic moment per site:
     atom:    1    charge:   13.5460    magn:    4.1787    constr:    0.0000
     atom:    2    charge:   13.5281    magn:   -4.3006    constr:    0.0000
     atom:    3    charge:   13.5460    magn:    4.1870    constr:    0.0000
     atom:    4    charge:   13.5460    magn:    4.1870    constr:    0.0000
     atom:    5    charge:   13.5460    magn:    4.1845    constr:    0.0000
     atom:    6    charge:   13.5478    magn:    4.1706    constr:    0.0000
     atom:    7    charge:   13.5460    magn:    4.1870    constr:    0.0000
     atom:    8    charge:   13.5460    magn:    4.1870    constr:    0.0000
     atom:    9    charge:    9.0908    magn:    0.0175    constr:    0.0000
     atom:   10    charge:    9.0879    magn:    0.0359    constr:    0.0000
     atom:   11    charge:    9.0881    magn:    0.0318    constr:    0.0000
     atom:   12    charge:    9.0881    magn:    0.0318    constr:    0.0000
     atom:   13    charge:    9.0898    magn:   -0.0017    constr:    0.0000
     atom:   14    charge:    9.0907    magn:    0.0415    constr:    0.0000
     atom:   15    charge:    9.0891    magn:    0.0083    constr:    0.0000
     atom:   16    charge:    9.0891    magn:    0.0083    constr:    0.0000
     atom:   17    charge:    9.0907    magn:    0.0415    constr:    0.0000
     atom:   18    charge:    9.0898    magn:   -0.0017    constr:    0.0000
     atom:   19    charge:    9.0881    magn:    0.0318    constr:    0.0000
     atom:   20    charge:    9.0881    magn:    0.0318    constr:    0.0000
     atom:   21    charge:    9.0908    magn:    0.0175    constr:    0.0000
     atom:   22    charge:    9.0879    magn:    0.0359    constr:    0.0000
     atom:   23    charge:    9.0891    magn:    0.0083    constr:    0.0000
     atom:   24    charge:    9.0891    magn:    0.0083    constr:    0.0000

     total cpu time spent up to now is     1057.5 secs

     End of self-consistent calculation
 --- enter write_ns ---
 LDA+U parameters:
U(  1) =   3.1200   J(  1) =   0.7000   B(  1) =   0.0803
U(  2) =   3.1200   J(  2) =   0.7000   B(  2) =   0.0803
atom    1   Tr[ns(na)] (up, down, total) =   4.96551  0.78111  5.74662
   spin  1
    eigenvalues: 
  0.983  0.991  0.993  0.997  1.002
    eigenvectors:
  0.000  0.000  0.009  0.991  0.000
  0.000  0.500  0.495  0.005  0.000
  0.000  0.500  0.495  0.005  0.000
  0.000  0.001  0.000  0.000  0.999
  1.000  0.000  0.000  0.000  0.000
    occupations:
  0.997  0.000  0.000 -0.000 -0.000
  0.000  0.992  0.001 -0.000 -0.000
  0.000  0.001  0.992  0.000 -0.000
 -0.000 -0.000  0.000  1.002 -0.000
 -0.000 -0.000 -0.000 -0.000  0.983
   spin  2
    eigenvalues: 
  0.066  0.143  0.147  0.160  0.264
    eigenvectors:
  0.000  0.987  0.000  0.012  0.000
  0.001  0.006  0.499  0.489  0.005
  0.001  0.006  0.499  0.489  0.005
  0.999  0.000  0.001  0.000  0.000
  0.000  0.001  0.000  0.010  0.989
    occupations:
  0.144  0.001  0.001 -0.000 -0.002
  0.001  0.154  0.007 -0.002  0.008
  0.001  0.007  0.154  0.002  0.008
 -0.000 -0.002  0.002  0.067 -0.000
 -0.002  0.008  0.008 -0.000  0.263
atomic mag. moment =     4.184403
atom    2   Tr[ns(na)] (up, down, total) =   0.68993  4.97420  5.66413
   spin  1
    eigenvalues: 
  0.073  0.119  0.140  0.145  0.213
    eigenvectors:
  0.000  0.981  0.019  0.000  0.000
  0.001  0.009  0.440  0.499  0.051
  0.001  0.009  0.440  0.499  0.051
  0.997  0.000  0.000  0.003  0.000
  0.000  0.001  0.101  0.000  0.898
    occupations:
  0.120  0.002  0.002 -0.000  0.001
  0.002  0.146  0.001 -0.003  0.016
  0.002  0.001  0.146  0.003  0.016
 -0.000 -0.003  0.003  0.073 -0.000
  0.001  0.016  0.016 -0.000  0.206
   spin  2
    eigenvalues: 
  0.987  0.994  0.994  0.998  1.002
    eigenvectors:
  0.002  0.077  0.000  0.922  0.000
  0.000  0.461  0.500  0.039  0.000
  0.000  0.461  0.500  0.039  0.000
  0.000  0.000  0.000  0.000  1.000
  0.997  0.002  0.000  0.001  0.000
    occupations:
  0.998 -0.001 -0.001 -0.000 -0.000
 -0.001  0.994  0.000 -0.000 -0.000
 -0.001  0.000  0.994  0.000 -0.000
 -0.000 -0.000  0.000  1.002 -0.000
 -0.000 -0.000 -0.000 -0.000  0.987
atomic mag. moment =    -4.284271
atom    3   Tr[ns(na)] (up, down, total) =   4.96609  0.77611  5.74221
   spin  1
    eigenvalues: 
  0.983  0.993  0.993  0.996  1.002
    eigenvectors:
  0.000  0.001  0.004  0.993  0.002
  0.000  0.629  0.366  0.004  0.000
  0.002  0.368  0.628  0.001  0.000
  0.000  0.001  0.000  0.002  0.997
  0.998  0.000  0.002  0.000  0.000
    occupations:
  0.996  0.000 -0.000 -0.000 -0.000
  0.000  0.993 -0.000  0.000  0.000
 -0.000 -0.000  0.993  0.000 -0.000
 -0.000  0.000  0.000  1.002 -0.000
 -0.000  0.000 -0.000 -0.000  0.983
   spin  2
    eigenvalues: 
  0.067  0.141  0.149  0.156  0.263
    eigenvectors:
  0.000  0.959  0.006  0.028  0.007
  0.000  0.029  0.004  0.966  0.001
  0.000  0.005  0.987  0.006  0.001
  1.000  0.000  0.000  0.000  0.000
  0.000  0.007  0.002  0.000  0.990
    occupations:
  0.142  0.002  0.001 -0.000 -0.010
  0.002  0.155 -0.001  0.001  0.004
  0.001 -0.001  0.149  0.001 -0.004
 -0.000  0.001  0.001  0.067  0.000
 -0.010  0.004 -0.004  0.000  0.262
atomic mag. moment =     4.189981
atom    4   Tr[ns(na)] (up, down, total) =   4.96609  0.77611  5.74221
   spin  1
    eigenvalues: 
  0.983  0.993  0.993  0.996  1.002
    eigenvectors:
  0.000  0.001  0.004  0.993  0.002
  0.002  0.368  0.628  0.001  0.000
  0.000  0.629  0.366  0.004  0.000
  0.000  0.001  0.000  0.002  0.997
  0.998  0.000  0.002  0.000  0.000
    occupations:
  0.996 -0.000  0.000  0.000 -0.000
 -0.000  0.993 -0.000 -0.000 -0.000
  0.000 -0.000  0.993 -0.000  0.000
  0.000 -0.000 -0.000  1.002  0.000
 -0.000 -0.000  0.000  0.000  0.983
   spin  2
    eigenvalues: 
  0.067  0.141  0.149  0.156  0.263
    eigenvectors:
  0.000  0.959  0.006  0.028  0.007
  0.000  0.005  0.987  0.006  0.001
  0.000  0.029  0.004  0.966  0.001
  1.000  0.000  0.000  0.000  0.000
  0.000  0.007  0.002  0.000  0.990
    occupations:
  0.142  0.001  0.002  0.000 -0.010
  0.001  0.149 -0.001 -0.001 -0.004
  0.002 -0.001  0.155 -0.001  0.004
  0.000 -0.001 -0.001  0.067 -0.000
 -0.010 -0.004  0.004 -0.000  0.262
atomic mag. moment =     4.189981
atom    5   Tr[ns(na)] (up, down, total) =   4.96650  0.77791  5.74441
   spin  1
    eigenvalues: 
  0.983  0.992  0.993  0.996  1.002
    eigenvectors:
  0.001  0.022  0.000  0.977  0.000
  0.003  0.486  0.500  0.011  0.000
  0.003  0.486  0.500  0.011  0.000
  0.000  0.000  0.001  0.000  0.999
  0.994  0.006  0.000  0.001  0.000
    occupations:
  0.996 -0.001 -0.001 -0.000  0.000
 -0.001  0.992 -0.001 -0.000  0.000
 -0.001 -0.001  0.992  0.000  0.000
 -0.000 -0.000  0.000  1.002 -0.000
  0.000  0.000  0.000 -0.000  0.983
   spin  2
    eigenvalues: 
  0.066  0.124  0.156  0.162  0.270
    eigenvectors:
  0.000  0.947  0.052  0.000  0.001
  0.000  0.025  0.471  0.500  0.003
  0.000  0.025  0.471  0.500  0.003
  1.000  0.000  0.000  0.000  0.000
  0.000  0.002  0.005  0.000  0.992
    occupations:
  0.125 -0.005 -0.005 -0.000  0.005
 -0.005  0.159 -0.004 -0.000  0.007
 -0.005 -0.004  0.159  0.000  0.007
 -0.000 -0.000  0.000  0.066 -0.000
  0.005  0.007  0.007 -0.000  0.269
atomic mag. moment =     4.188582
atom    6   Tr[ns(na)] (up, down, total) =   4.96532  0.79148  5.75680
   spin  1
    eigenvalues: 
  0.983  0.992  0.993  0.996  1.002
    eigenvectors:
  0.001  0.000  0.007  0.992  0.000
  0.004  0.499  0.493  0.004  0.001
  0.004  0.499  0.493  0.004  0.001
  0.000  0.001  0.000  0.000  0.999
  0.992  0.000  0.008  0.000  0.000
    occupations:
  0.996  0.000  0.000 -0.000  0.000
  0.000  0.992  0.000  0.000 -0.001
  0.000  0.000  0.992 -0.000 -0.001
 -0.000  0.000 -0.000  1.002 -0.000
  0.000 -0.001 -0.001 -0.000  0.983
   spin  2
    eigenvalues: 
  0.066  0.148  0.153  0.159  0.265
    eigenvectors:
  0.000  0.978  0.000  0.022  0.000
  0.000  0.011  0.500  0.489  0.000
  0.000  0.011  0.500  0.489  0.000
  1.000  0.000  0.000  0.000  0.000
  0.000  0.000  0.000  0.000  1.000
    occupations:
  0.148 -0.001 -0.001 -0.000 -0.001
 -0.001  0.156  0.003  0.001  0.001
 -0.001  0.003  0.156 -0.001  0.001
 -0.000  0.001 -0.001  0.066 -0.000
 -0.001  0.001  0.001 -0.000  0.265
atomic mag. moment =     4.173838
atom    7   Tr[ns(na)] (up, down, total) =   4.96609  0.77611  5.74221
   spin  1
    eigenvalues: 
  0.983  0.993  0.993  0.996  1.002
    eigenvectors:
  0.000  0.001  0.004  0.993  0.002
  0.002  0.368  0.628  0.001  0.000
  0.000  0.629  0.366  0.004  0.000
  0.000  0.001  0.000  0.002  0.997
  0.998  0.000  0.002  0.000  0.000
    occupations:
  0.996 -0.000  0.000  0.000 -0.000
 -0.000  0.993 -0.000 -0.000 -0.000
  0.000 -0.000  0.993 -0.000  0.000
  0.000 -0.000 -0.000  1.002  0.000
 -0.000 -0.000  0.000  0.000  0.983
   spin  2
    eigenvalues: 
  0.067  0.141  0.149  0.156  0.263
    eigenvectors:
  0.000  0.959  0.006  0.028  0.007
  0.000  0.005  0.987  0.006  0.001
  0.000  0.029  0.004  0.966  0.001
  1.000  0.000  0.000  0.000  0.000
  0.000  0.007  0.002  0.000  0.990
    occupations:
  0.142  0.001  0.002  0.000 -0.010
  0.001  0.149 -0.001 -0.001 -0.004
  0.002 -0.001  0.155 -0.001  0.004
  0.000 -0.001 -0.001  0.067 -0.000
 -0.010 -0.004  0.004 -0.000  0.262
atomic mag. moment =     4.189981
atom    8   Tr[ns(na)] (up, down, total) =   4.96609  0.77611  5.74221
   spin  1
    eigenvalues: 
  0.983  0.993  0.993  0.996  1.002
    eigenvectors:
  0.000  0.001  0.004  0.993  0.002
  0.000  0.629  0.366  0.004  0.000
  0.002  0.368  0.628  0.001  0.000
  0.000  0.001  0.000  0.002  0.997
  0.998  0.000  0.002  0.000  0.000
    occupations:
  0.996  0.000 -0.000 -0.000 -0.000
  0.000  0.993 -0.000  0.000  0.000
 -0.000 -0.000  0.993  0.000 -0.000
 -0.000  0.000  0.000  1.002 -0.000
 -0.000  0.000 -0.000 -0.000  0.983
   spin  2
    eigenvalues: 
  0.067  0.141  0.149  0.156  0.263
    eigenvectors:
  0.000  0.959  0.006  0.028  0.007
  0.000  0.029  0.004  0.966  0.001
  0.000  0.005  0.987  0.006  0.001
  1.000  0.000  0.000  0.000  0.000
  0.000  0.007  0.002  0.000  0.990
    occupations:
  0.142  0.002  0.001 -0.000 -0.010
  0.002  0.155 -0.001  0.001  0.004
  0.001 -0.001  0.149  0.001 -0.004
 -0.000  0.001  0.001  0.067  0.000
 -0.010  0.004 -0.004  0.000  0.262
atomic mag. moment =     4.189981
N of occupied +U levels =   45.880779
 --- exit write_ns ---

 ------ SPIN UP ------------


          k = 0.0000 0.0000 0.0000 ( 13629 PWs)   bands (ev):

   -66.3529 -66.3510 -66.3501 -66.3499 -66.3499 -66.3332 -66.2990 -61.9663
   -35.1349 -35.1183 -35.1183 -35.1182 -35.1181 -35.1021 -35.0940 -35.0929
   -35.0925 -35.0924 -35.0862 -35.0737 -35.0664 -35.0655 -35.0655 -35.0654
   -35.0608 -35.0589 -35.0486 -35.0349 -35.0253 -30.7936 -30.7923 -30.7877
     5.9042   7.4859   7.5571   8.0232   8.0840   8.2042   8.3138   8.3222
     8.6906   8.6927   8.9201   9.0313   9.2777   9.2803   9.3109   9.3175
     9.3537   9.4093   9.4467   9.4553   9.4939   9.5443   9.5491   9.5589
     9.5811   9.6184   9.6371   9.6731   9.6965   9.7223   9.7957   9.8353
     9.8950   9.9233   9.9365   9.9396   9.9414   9.9921   9.9970  10.0410
    10.1570  10.1750  10.2141  10.2253  10.2443  10.2470  10.2718  10.3838
    10.3859  10.4248  10.4316  10.4456  10.4568  10.4739  10.4762  10.4883
    10.5383  10.6237  10.6370  10.6458  10.6582  10.7726  10.7948  10.8332
    10.9134  11.0698  11.0735  11.1716  11.2432  11.3114  11.3117  11.3486
    11.4601  11.5341  11.5953  11.6114  11.7080  11.8001  11.8022  11.8101
    11.8138  11.8203  11.8450  11.8623  11.8684  11.9153  11.9672  12.0300
    12.0337  12.0785  12.1508  12.2466  12.2547  12.2681  12.2866  12.3367
    12.3598  12.3688  12.4268  12.4774  12.4902  12.4951  12.5035  12.5770
    12.5880  12.6215  12.6675  12.6706  12.6747  12.7228  12.7479  12.8091
    12.8589  12.9423  12.9713  13.0664  13.1005  13.2405  13.2423  13.2639
    13.2967  13.3744  13.3969  13.4465  14.0727  14.9898  15.0379  15.3383
    15.9240  16.2554  16.6523  16.8929  16.9468  17.4874  17.7142  17.7905
    18.0855  18.1624  18.8522  18.8598  18.9983  19.0873  19.1916  19.2069
    19.2475  19.3440

          k = 0.0000 0.0000-0.5441 ( 13704 PWs)   bands (ev):

   -66.3529 -66.3510 -66.3502 -66.3499 -66.3499 -66.3332 -66.2990 -61.9664
   -35.1349 -35.1184 -35.1183 -35.1182 -35.1181 -35.1021 -35.0940 -35.0929
   -35.0925 -35.0924 -35.0862 -35.0737 -35.0664 -35.0655 -35.0655 -35.0654
   -35.0609 -35.0589 -35.0486 -35.0350 -35.0253 -30.7936 -30.7924 -30.7878
     6.4965   7.5231   8.0294   8.0746   8.3720   8.3990   8.5996   8.6086
     8.6086   8.7576   8.8074   8.8175   8.8629   8.9253   8.9715   8.9885
     8.9897   9.0099   9.1077   9.3512   9.4595   9.5333   9.5461   9.5484
     9.6170   9.6190   9.6240   9.6495   9.6601   9.6635   9.6850   9.6898
     9.7031   9.7508   9.7916   9.8310   9.8879   9.9108   9.9393  10.0029
    10.0156  10.1213  10.1492  10.1579  10.2630  10.3140  10.3378  10.3481
    10.3700  10.4538  10.4808  10.4897  10.5262  10.5384  10.5723  10.5759
    10.6305  10.6966  10.7066  10.7709  10.8389  10.9225  10.9920  11.1615
    11.1782  11.2335  11.3570  11.5225  11.5322  11.5398  11.5494  11.5603
    11.5835  11.6063  11.6278  11.6608  11.7578  11.7883  11.7932  11.8208
    11.8722  11.8843  11.8860  11.9091  11.9096  11.9409  11.9876  12.0284
    12.0343  12.0547  12.0943  12.1176  12.1695  12.1741  12.1769  12.2318
    12.2461  12.2780  12.2878  12.3288  12.3386  12.3739  12.4782  12.5507
    12.5680  12.6218  12.6427  12.6624  12.7317  12.7447  12.8175  12.8569
    12.9323  12.9560  12.9849  13.0542  13.1914  13.1975  13.2031  13.2086
    13.2819  13.6801  13.7065  14.1290  14.1642  14.1781  14.2121  14.4916
    15.5048  15.6787  16.0195  16.1426  16.3884  17.2381  17.2560  17.3882
    17.4922  17.8197  17.8870  18.4316  18.7382  18.8644  18.9497  18.9618
    19.1122  19.3423

          k = 0.0000 0.0000 1.0883 ( 13706 PWs)   bands (ev):

   -66.3530 -66.3510 -66.3503 -66.3499 -66.3498 -66.3332 -66.2990 -61.9664
   -35.1349 -35.1185 -35.1183 -35.1182 -35.1181 -35.1021 -35.0940 -35.0929
   -35.0926 -35.0924 -35.0862 -35.0737 -35.0664 -35.0655 -35.0655 -35.0653
   -35.0609 -35.0589 -35.0486 -35.0350 -35.0253 -30.7936 -30.7924 -30.7878
     7.7803   8.0219   8.0737   8.2115   8.2964   8.3046   8.3853   8.5539
     8.5751   8.6899   8.6924   8.7324   8.8050   8.8242   8.9098   8.9185
     9.0661   9.0722   9.1295   9.2870   9.2879   9.3594   9.4000   9.4440
     9.4560   9.5619   9.5808   9.6405   9.6563   9.6727   9.7501   9.7507
     9.7978   9.8091   9.8633   9.8885   9.9363   9.9403   9.9767   9.9955
    10.0196  10.0479  10.0697  10.1891  10.2122  10.2305  10.2445  10.2466
    10.2505  10.2710  10.3586  10.3586  10.3831  10.3843  10.3945  10.4201
    10.4461  10.5169  10.5402  10.5936  10.7437  10.7472  10.8321  10.8989
    10.9074  11.1347  11.1990  11.3960  11.4336  11.4691  11.5168  11.5242
    11.5344  11.5808  11.6666  11.7043  11.8014  11.8019  11.8138  11.8441
    11.8623  11.9765  11.9949  12.0264  12.0376  12.0839  12.1343  12.1404
    12.1826  12.2319  12.2502  12.2544  12.3080  12.3374  12.3857  12.4487
    12.4776  12.4944  12.5342  12.5871  12.6207  12.6721  12.6740  12.6990
    12.7232  12.7348  12.7540  12.7759  12.8649  13.0337  13.0891  13.0934
    13.1024  13.1256  13.2241  13.2412  13.2424  13.2762  13.2887  13.3829
    13.4197  13.4219  13.4410  13.6416  13.6819  13.7695  13.7783  14.0729
    14.9903  15.0368  15.4288  15.9235  16.3446  16.9112  17.0840  17.3852
    17.6103  17.6382  17.7997  17.9917  18.1622  18.5830  18.8525  18.8594
    18.9531  18.9553

          k =-0.1768-0.1768-0.1360 ( 13673 PWs)   bands (ev):

   -66.3529 -66.3510 -66.3501 -66.3499 -66.3499 -66.3332 -66.2990 -61.9663
   -35.1349 -35.1183 -35.1183 -35.1182 -35.1181 -35.1021 -35.0940 -35.0928
   -35.0926 -35.0924 -35.0862 -35.0736 -35.0674 -35.0659 -35.0651 -35.0642
   -35.0608 -35.0591 -35.0486 -35.0349 -35.0253 -30.7936 -30.7924 -30.7877
     6.0665   7.2345   7.6306   7.6962   8.3111   8.3642   8.3892   8.5600
     8.5689   8.7377   9.0251   9.1055   9.1188   9.2004   9.2376   9.2378
     9.2471   9.3614   9.3701   9.3977   9.4363   9.4504   9.4722   9.4868
     9.5455   9.5600   9.5924   9.6372   9.7631   9.7947   9.8324   9.8815
     9.9002   9.9220   9.9796  10.0157  10.0300  10.0521  10.0557  10.1143
    10.1604  10.1708  10.1996  10.2118  10.2553  10.3188  10.3699  10.3848
    10.3971  10.3971  10.4391  10.4782  10.4898  10.5325  10.5447  10.6092
    10.6224  10.6496  10.6759  10.6842  10.7777  10.7950  10.8825  10.9240
    10.9248  10.9776  11.0149  11.0938  11.1865  11.2403  11.3072  11.3391
    11.4034  11.4603  11.5548  11.6116  11.6486  11.6681  11.6720  11.7397
    11.7671  11.7704  11.8027  11.8156  11.8587  11.9162  11.9186  11.9207
    11.9704  11.9879  12.0288  12.0629  12.1161  12.1633  12.2203  12.2345
    12.2564  12.2702  12.2802  12.3342  12.3486  12.3537  12.4640  12.5653
    12.5784  12.6003  12.6327  12.7664  12.7974  12.8281  12.8695  12.8855
    12.8898  12.9183  12.9697  12.9837  13.0167  13.0862  13.1839  13.2091
    13.2673  13.6706  14.3644  14.4304  14.7364  15.3273  15.6359  15.6707
    15.9600  16.1270  16.4962  16.7508  16.7782  17.2338  17.2952  17.4237
    17.6516  17.9022  18.2021  18.4367  18.4885  18.6301  18.7182  18.8376
    18.9046  19.5954

          k =-0.1768-0.1768-0.6802 ( 13666 PWs)   bands (ev):

   -66.3529 -66.3510 -66.3502 -66.3499 -66.3499 -66.3332 -66.2990 -61.9664
   -35.1349 -35.1184 -35.1182 -35.1182 -35.1181 -35.1021 -35.0940 -35.0928
   -35.0926 -35.0924 -35.0862 -35.0736 -35.0674 -35.0659 -35.0651 -35.0642
   -35.0609 -35.0591 -35.0486 -35.0349 -35.0253 -30.7936 -30.7924 -30.7878
     6.9135   6.9650   8.2641   8.2976   8.3213   8.3501   8.4848   8.6715
     8.6797   8.7479   8.7909   8.7975   8.8205   8.8654   8.9434   8.9950
     9.0402   9.2567   9.2626   9.2942   9.3671   9.4217   9.4498   9.4947
     9.5471   9.5848   9.5889   9.5968   9.6235   9.6255   9.6863   9.7022
     9.7312   9.7635   9.8011   9.8403   9.8500   9.8967   9.9321   9.9325
    10.2170  10.2484  10.2573  10.2743  10.2869  10.3091  10.3453  10.3608
    10.4041  10.4281  10.4401  10.4562  10.5432  10.5771  10.6791  10.7186
    10.7211  10.7511  10.7559  10.7622  10.9067  10.9571  10.9880  11.0125
    11.0626  11.1138  11.1209  11.1918  11.3180  11.3334  11.3482  11.4149
    11.4250  11.5385  11.6323  11.6331  11.6477  11.7001  11.7279  11.7537
    11.7707  11.8535  11.8820  11.9181  11.9354  11.9453  11.9517  11.9794
    11.9883  12.0213  12.0492  12.0929  12.0959  12.1388  12.1922  12.2129
    12.2284  12.2666  12.2830  12.3318  12.3391  12.3890  12.3943  12.5399
    12.5756  12.5961  12.6484  12.6922  12.7565  12.7905  12.8742  12.9007
    12.9718  13.0239  13.0458  13.1000  13.1334  13.2057  13.2157  13.2926
    13.3050  13.9422  14.2439  14.5698  14.8739  14.9776  15.0444  15.0941
    15.2034  15.5842  15.6515  16.4954  16.5540  16.6400  16.7188  16.7622
    17.1302  17.6981  17.7183  17.8716  18.0073  18.1539  18.6993  18.9076
    19.8922  20.2995

          k =-0.1768-0.1768 0.9522 ( 13713 PWs)   bands (ev):

   -66.3530 -66.3509 -66.3502 -66.3499 -66.3499 -66.3333 -66.2990 -61.9664
   -35.1349 -35.1184 -35.1183 -35.1183 -35.1181 -35.1021 -35.0940 -35.0928
   -35.0926 -35.0924 -35.0862 -35.0736 -35.0674 -35.0659 -35.0651 -35.0642
   -35.0609 -35.0591 -35.0486 -35.0350 -35.0253 -30.7936 -30.7924 -30.7878
     7.6188   7.7202   8.2157   8.3075   8.3732   8.3752   8.5749   8.5757
     8.5915   8.6328   8.6417   8.6696   8.6975   8.7794   8.8059   8.9411
     9.0590   9.0798   9.0992   9.2136   9.2843   9.3027   9.3420   9.3436
     9.4086   9.4149   9.4650   9.5355   9.5795   9.6410   9.6982   9.7038
     9.7235   9.7496   9.7555   9.8175   9.8404   9.9440   9.9652   9.9877
    10.0272  10.0447  10.1147  10.2008  10.2677  10.2894  10.3149  10.3615
    10.4067  10.4500  10.4638  10.4969  10.5470  10.5667  10.6222  10.6252
    10.6891  10.6964  10.7636  10.7689  10.7926  10.8434  10.9516  11.0577
    11.0954  11.2244  11.3074  11.3491  11.4001  11.4072  11.5130  11.5774
    11.6455  11.7366  11.7783  11.7793  11.8222  11.8502  11.9006  11.9240
    11.9318  11.9947  12.0031  12.0206  12.0353  12.0714  12.0922  12.1247
    12.1257  12.2048  12.2250  12.2297  12.2476  12.2685  12.2856  12.3245
    12.3282  12.3546  12.3983  12.4779  12.5149  12.5722  12.6911  12.7041
    12.7159  12.8149  12.8294  12.8541  12.8641  12.9148  12.9583  12.9690
    12.9838  13.0096  13.0149  13.1134  13.1250  13.1263  13.1465  13.2025
    13.2387  13.3915  13.4267  13.7610  13.8394  13.8850  14.0124  14.0223
    14.3242  14.8145  14.8633  16.1285  16.1495  16.4640  16.9473  17.1813
    17.4489  17.6289  17.9128  18.2597  18.4576  18.5290  18.8100  18.8878
    19.3069  19.4520

          k =-0.1768-0.1768 0.4081 ( 13683 PWs)   bands (ev):

   -66.3529 -66.3509 -66.3502 -66.3499 -66.3499 -66.3332 -66.2990 -61.9664
   -35.1349 -35.1184 -35.1183 -35.1182 -35.1181 -35.1021 -35.0940 -35.0928
   -35.0926 -35.0924 -35.0862 -35.0736 -35.0674 -35.0659 -35.0651 -35.0642
   -35.0609 -35.0591 -35.0486 -35.0349 -35.0253 -30.7936 -30.7924 -30.7878
     6.3619   7.8943   7.9458   8.0079   8.2442   8.3996   8.4232   8.5469
     8.5579   8.5691   8.7070   8.9083   8.9350   8.9444   8.9983   9.0155
     9.1314   9.1350   9.1629   9.2408   9.2650   9.4296   9.4716   9.5213
     9.5497   9.5904   9.5938   9.6394   9.6634   9.6636   9.7030   9.7076
     9.7716   9.7826   9.8066   9.8270   9.8905   9.9212   9.9810  10.0153
    10.1176  10.1559  10.1706  10.2077  10.2319  10.2556  10.2841  10.2889
    10.3612  10.3702  10.4253  10.4596  10.5507  10.5787  10.7302  10.7320
    10.7697  10.8021  10.8561  10.9681  11.0948  11.1543  11.1755  11.1786
    11.2690  11.2820  11.3036  11.3647  11.3888  11.3933  11.4674  11.5010
    11.5849  11.6209  11.6941  11.7349  11.8305  11.8817  11.9109  11.9122
    11.9221  11.9700  11.9734  11.9898  12.0100  12.0260  12.0859  12.1505
    12.1606  12.1649  12.1922  12.2244  12.2289  12.2414  12.2497  12.2629
    12.2749  12.3215  12.3251  12.3526  12.3836  12.4119  12.4387  12.4511
    12.5378  12.5608  12.5689  12.5834  12.6088  12.6498  12.7036  12.7368
    12.7623  12.8793  12.8922  12.9193  12.9568  13.0104  13.1132  13.1560
    13.2509  13.3574  13.3855  13.5070  13.6276  13.9849  14.0521  15.0749
    15.4486  15.6660  16.0520  16.3685  16.6097  16.9465  17.2480  17.4893
    17.7030  17.8513  17.9496  18.0481  18.6655  18.8063  18.9962  19.0577
    19.5477  19.8204

          k = 0.3536 0.3536 0.2721 ( 13708 PWs)   bands (ev):

   -66.3529 -66.3509 -66.3501 -66.3499 -66.3499 -66.3332 -66.2990 -61.9663
   -35.1349 -35.1183 -35.1183 -35.1181 -35.1181 -35.1021 -35.0939 -35.0927
   -35.0926 -35.0926 -35.0862 -35.0734 -35.0680 -35.0661 -35.0649 -35.0635
   -35.0608 -35.0593 -35.0486 -35.0349 -35.0253 -30.7936 -30.7924 -30.7877
     6.5167   6.5477   7.9970   8.0167   8.0233   8.0996   8.5870   8.6694
     8.7149   8.7172   8.8080   8.8384   9.2403   9.2425   9.2749   9.2780
     9.2915   9.2947   9.3242   9.4002   9.4420   9.4495   9.4859   9.5194
     9.5276   9.5511   9.5602   9.5636   9.5773   9.6642   9.6684   9.8040
     9.8690   9.9597  10.0422  10.0471  10.0631  10.0877  10.1603  10.1980
    10.2350  10.2571  10.2858  10.2863  10.2920  10.3052  10.3482  10.3893
    10.3940  10.4030  10.4197  10.4933  10.5836  10.5899  10.5908  10.6712
    10.6811  10.6843  10.6889  10.7951  10.8088  10.9158  10.9488  10.9665
    10.9980  11.0169  11.0481  11.2510  11.2558  11.2642  11.2867  11.3022
    11.3175  11.3599  11.4102  11.4150  11.4404  11.4498  11.4553  11.5045
    11.5765  11.6863  11.6970  11.8286  11.8341  11.8611  11.8664  11.8980
    11.9672  12.0010  12.0461  12.0484  12.0871  12.0968  12.1106  12.1832
    12.1926  12.1946  12.2586  12.3098  12.3113  12.4120  12.4193  12.4759
    12.4836  12.4991  12.6123  12.7370  12.7450  12.7680  12.7841  12.9595
    12.9687  12.9713  12.9762  13.0566  13.1055  13.1134  13.1759  13.1956
    13.1969  14.5836  15.1418  15.4937  15.5246  15.6309  15.9956  16.0515
    16.0559  16.1433  16.1531  16.2612  16.7195  16.7824  16.9393  16.9723
    17.0587  17.1673  17.6235  17.8374  17.9812  18.0317  18.4967  18.7838
    19.5734  19.5799

          k = 0.3536 0.3536-0.2721 ( 13700 PWs)   bands (ev):

   -66.3529 -66.3509 -66.3502 -66.3499 -66.3499 -66.3332 -66.2990 -61.9664
   -35.1349 -35.1184 -35.1183 -35.1182 -35.1181 -35.1021 -35.0939 -35.0927
   -35.0926 -35.0926 -35.0862 -35.0734 -35.0680 -35.0661 -35.0649 -35.0635
   -35.0609 -35.0593 -35.0486 -35.0349 -35.0253 -30.7936 -30.7924 -30.7878
     6.5320   7.5436   8.0100   8.0567   8.3021   8.5120   8.5358   8.5658
     8.5684   8.6209   8.7580   8.7705   8.8579   8.8675   8.9203   9.1878
     9.2167   9.2337   9.2770   9.2796   9.3085   9.3474   9.3741   9.4333
     9.4409   9.4918   9.5366   9.5474   9.5891   9.6207   9.6299   9.7258
     9.7425   9.7851   9.8394   9.8508   9.9540  10.0576  10.0772  10.1167
    10.1172  10.2006  10.2312  10.2594  10.2828  10.3256  10.3465  10.4241
    10.4280  10.4372  10.4474  10.5220  10.5866  10.6313  10.6838  10.7468
    10.7531  10.7623  10.8124  10.8718  10.9223  10.9347  11.0031  11.0975
    11.1567  11.1930  11.2604  11.3009  11.3734  11.3812  11.4194  11.4726
    11.4944  11.5583  11.5784  11.6103  11.7064  11.7466  11.7953  11.8556
    11.8619  11.8663  11.9477  11.9640  11.9735  12.0068  12.0111  12.0544
    12.0596  12.0656  12.0909  12.0914  12.1259  12.1367  12.1538  12.2074
    12.2240  12.2497  12.2845  12.2900  12.3124  12.3417  12.3587  12.4389
    12.4993  12.6385  12.6516  12.6549  12.7526  12.7692  12.7859  12.8758
    12.9006  12.9638  12.9981  13.0265  13.1151  13.1185  13.1372  13.2177
    13.2247  13.4633  13.5281  14.1722  14.2391  14.8459  14.9900  15.1029
    15.7800  15.8245  15.9475  16.0918  16.2484  16.7459  16.9374  17.0549
    17.1550  17.7722  17.7912  17.8395  18.2660  18.5123  18.6543  19.4190
    19.6693  19.7100

          k = 0.3536 0.3536 1.3603 ( 13692 PWs)   bands (ev):

   -66.3530 -66.3509 -66.3502 -66.3499 -66.3499 -66.3333 -66.2990 -61.9664
   -35.1349 -35.1184 -35.1183 -35.1182 -35.1182 -35.1021 -35.0939 -35.0927
   -35.0926 -35.0926 -35.0862 -35.0734 -35.0680 -35.0660 -35.0649 -35.0635
   -35.0609 -35.0593 -35.0486 -35.0350 -35.0253 -30.7936 -30.7924 -30.7878
     7.5176   7.5696   8.2576   8.3434   8.4909   8.4977   8.5204   8.5210
     8.5246   8.5896   8.6011   8.6354   8.7819   8.8363   8.8636   8.8754
     8.9473   8.9697   9.1578   9.1927   9.2024   9.2304   9.2643   9.2984
     9.3043   9.4164   9.4300   9.4393   9.4507   9.6497   9.6550   9.6900
     9.7522   9.7538   9.7569   9.7598   9.8314   9.8630   9.8723   9.9410
    10.0755  10.0913  10.1508  10.1565  10.2066  10.2958  10.3796  10.4184
    10.4353  10.5286  10.5619  10.5965  10.6014  10.7235  10.7525  10.7559
    10.7654  10.8160  10.9032  11.0258  11.0315  11.0749  11.1542  11.2705
    11.3481  11.4065  11.5438  11.5886  11.6634  11.6924  11.7383  11.7875
    11.7935  11.8207  11.8262  11.8600  11.9082  11.9110  11.9517  11.9682
    11.9767  11.9855  12.0102  12.0281  12.0432  12.0436  12.0740  12.0766
    12.0808  12.0944  12.1172  12.1336  12.1548  12.1585  12.1986  12.2377
    12.2404  12.2456  12.2519  12.2613  12.2862  12.3113  12.3283  12.3329
    12.5589  12.6654  12.7202  12.7254  12.7639  12.7707  12.7735  12.8782
    12.8950  12.9012  12.9036  13.0063  13.0647  13.1113  13.1862  13.2283
    13.2405  13.4168  13.4945  13.5433  13.5698  14.0615  14.1526  14.3364
    14.3490  14.9408  15.0520  15.0779  15.0882  16.4611  16.9572  17.2958
    17.5352  17.6275  18.0752  18.3395  18.4499  18.7172  19.2887  19.4690
    19.6112  19.9211

          k = 0.1768-0.1768 0.0000 ( 13644 PWs)   bands (ev):

   -66.3529 -66.3510 -66.3501 -66.3499 -66.3499 -66.3332 -66.2990 -61.9663
   -35.1349 -35.1183 -35.1182 -35.1182 -35.1181 -35.1021 -35.0939 -35.0929
   -35.0926 -35.0925 -35.0862 -35.0736 -35.0674 -35.0659 -35.0650 -35.0644
   -35.0608 -35.0591 -35.0486 -35.0349 -35.0253 -30.7936 -30.7924 -30.7877
     6.0288   6.9261   7.9642   8.0950   8.1464   8.2089   8.3776   8.3878
     8.5690   8.5824   8.8219   8.9149   9.1855   9.3170   9.3254   9.3523
     9.3632   9.4118   9.4291   9.4903   9.5264   9.5352   9.5416   9.5786
     9.5931   9.5953   9.6369   9.6508   9.6527   9.6888   9.7675   9.7729
     9.8208   9.8395   9.8468   9.9588   9.9948  10.0355  10.0722  10.0891
    10.1302  10.1338  10.1449  10.2195  10.2441  10.2445  10.3172  10.3519
    10.4712  10.4733  10.4927  10.5035  10.5063  10.5188  10.5605  10.5675
    10.5744  10.5918  10.6719  10.7135  10.7949  10.8119  10.9136  11.0192
    11.0609  11.0958  11.1387  11.1885  11.2879  11.3164  11.3614  11.3616
    11.4109  11.4480  11.5452  11.6051  11.6645  11.6816  11.7082  11.7445
    11.7760  11.8431  11.8733  11.8817  11.9076  11.9348  11.9636  11.9656
    12.0541  12.0611  12.1934  12.2262  12.2366  12.2367  12.2518  12.2875
    12.2930  12.3323  12.3399  12.3886  12.4190  12.4760  12.5319  12.5757
    12.6126  12.6412  12.6963  12.7027  12.7220  12.7424  12.7575  12.7999
    12.8468  12.8599  12.9150  12.9227  12.9817  13.0648  13.1060  13.1874
    13.2009  13.2544  13.3435  14.0827  14.1037  15.1336  15.3318  15.4641
    15.7944  16.3882  16.6526  16.7292  16.9982  17.2883  17.3187  17.8133
    17.9303  17.9459  18.2178  18.3510  18.7516  18.8956  19.0004  19.3113
    19.4394  19.4756

          k = 0.1768-0.1768-0.5441 ( 13695 PWs)   bands (ev):

   -66.3529 -66.3509 -66.3502 -66.3499 -66.3498 -66.3332 -66.2990 -61.9664
   -35.1349 -35.1184 -35.1183 -35.1182 -35.1181 -35.1021 -35.0939 -35.0929
   -35.0926 -35.0925 -35.0862 -35.0736 -35.0674 -35.0659 -35.0650 -35.0644
   -35.0609 -35.0591 -35.0486 -35.0350 -35.0253 -30.7936 -30.7924 -30.7878
     6.6106   7.4555   7.6313   8.2641   8.4190   8.5023   8.5536   8.6360
     8.7028   8.7354   8.8054   8.8177   8.8600   8.9092   8.9963   9.0331
     9.0608   9.0715   9.1238   9.1980   9.3240   9.3648   9.3865   9.4108
     9.4835   9.5127   9.5458   9.6068   9.6092   9.6372   9.6663   9.7076
     9.7135   9.7393   9.7901   9.8293   9.8706   9.9407   9.9611  10.0638
    10.2103  10.2396  10.2622  10.2647  10.3289  10.3374  10.3989  10.4039
    10.4765  10.5227  10.5625  10.6196  10.6224  10.6609  10.6924  10.6983
    10.7295  10.8021  10.8214  10.8322  10.8433  10.9524  11.0222  11.1596
    11.1915  11.2287  11.3063  11.3363  11.4008  11.4206  11.4753  11.5384
    11.5458  11.5629  11.5904  11.6285  11.6490  11.6980  11.7181  11.7717
    11.8168  11.8417  11.8946  11.9613  11.9786  11.9924  11.9984  12.0154
    12.0346  12.0501  12.0734  12.1252  12.1413  12.1545  12.1819  12.1992
    12.2295  12.2792  12.3014  12.3096  12.3209  12.3421  12.3748  12.4390
    12.5424  12.5625  12.6122  12.6339  12.6926  12.7229  12.7475  12.8692
    12.9229  12.9627  13.0248  13.0682  13.1104  13.2256  13.2382  13.3697
    13.4211  13.5789  13.6746  13.7541  13.8159  14.4539  14.9822  15.0887
    15.3136  15.4177  16.0861  16.1899  16.3328  16.7747  17.1509  17.2739
    17.6004  17.6748  18.1249  18.1616  18.5856  18.6399  18.7483  19.0424
    19.4918  19.7782

          k = 0.1768-0.1768 1.0883 ( 13696 PWs)   bands (ev):

   -66.3530 -66.3510 -66.3503 -66.3499 -66.3498 -66.3333 -66.2990 -61.9664
   -35.1349 -35.1184 -35.1183 -35.1182 -35.1181 -35.1021 -35.0939 -35.0929
   -35.0926 -35.0925 -35.0861 -35.0736 -35.0674 -35.0659 -35.0649 -35.0644
   -35.0609 -35.0591 -35.0486 -35.0350 -35.0253 -30.7936 -30.7924 -30.7878
     7.8465   8.0931   8.1391   8.2919   8.3489   8.3519   8.4058   8.4169
     8.5620   8.5654   8.6007   8.6343   8.6481   8.7492   8.8236   8.9039
     8.9787   9.2030   9.3248   9.3468   9.3651   9.3789   9.4216   9.4434
     9.4631   9.5012   9.5684   9.5893   9.5985   9.6424   9.6707   9.6797
     9.7676   9.8008   9.8404   9.8677   9.9251   9.9532  10.0093  10.0209
    10.0256  10.0784  10.1071  10.1341  10.1737  10.1891  10.2149  10.2231
    10.2750  10.2808  10.3558  10.3650  10.4716  10.4753  10.4760  10.4914
    10.4952  10.5168  10.5766  10.5790  10.6513  10.7794  10.8778  11.1578
    11.1865  11.2240  11.2352  11.2701  11.3522  11.5109  11.5219  11.5753
    11.6261  11.6643  11.7294  11.7422  11.7898  11.7936  11.9047  11.9172
    11.9403  11.9623  11.9883  11.9997  12.0289  12.0730  12.0820  12.0821
    12.1526  12.2103  12.2446  12.2465  12.2503  12.2896  12.3003  12.3296
    12.4007  12.4347  12.4669  12.4761  12.5239  12.6548  12.6717  12.6954
    12.7286  12.7400  12.7604  12.7962  12.8034  12.8205  12.9120  12.9228
    12.9350  12.9651  13.0779  13.1059  13.1081  13.1455  13.2027  13.2127
    13.2304  13.3014  13.3926  14.0769  14.0816  14.5295  14.5698  14.6244
    15.2246  15.3357  15.4963  15.7943  16.2650  16.4238  16.4826  17.0533
    17.1764  17.3933  17.5385  17.6245  17.8604  18.0303  18.5533  18.7322
    18.7710  19.1424

          k = 0.0000-0.3536-0.1360 ( 13676 PWs)   bands (ev):

   -66.3529 -66.3509 -66.3502 -66.3501 -66.3497 -66.3332 -66.2990 -61.9663
   -35.1349 -35.1183 -35.1182 -35.1182 -35.1181 -35.1021 -35.0939 -35.0928
   -35.0926 -35.0925 -35.0862 -35.0735 -35.0678 -35.0656 -35.0655 -35.0637
   -35.0608 -35.0592 -35.0486 -35.0349 -35.0253 -30.7936 -30.7924 -30.7877
     6.1896   7.0747   7.3379   8.0294   8.1033   8.3281   8.5010   8.5449
     8.7524   8.7699   8.9450   9.0304   9.0828   9.2233   9.2388   9.2498
     9.2670   9.3188   9.3358   9.3517   9.3682   9.4084   9.4501   9.4918
     9.5146   9.5737   9.5845   9.6584   9.7335   9.7864   9.8435   9.8762
     9.9136   9.9274   9.9621   9.9765  10.0084  10.0090  10.0728  10.1062
    10.1327  10.1531  10.1979  10.2436  10.2587  10.3189  10.3792  10.4180
    10.4274  10.4947  10.5035  10.5629  10.5816  10.6057  10.6376  10.6528
    10.6888  10.7114  10.7392  10.7749  10.8039  10.8467  10.8670  10.9375
    11.0128  11.0355  11.1368  11.1774  11.2003  11.2247  11.3054  11.3263
    11.3799  11.4245  11.5398  11.5793  11.6117  11.6458  11.6714  11.6894
    11.6995  11.7266  11.7578  11.7861  11.8010  11.8583  11.8998  11.9095
    11.9606  11.9875  12.0316  12.0615  12.0776  12.1240  12.2165  12.2328
    12.2662  12.2797  12.3069  12.3283  12.3538  12.3918  12.4396  12.4489
    12.4676  12.5306  12.5900  12.6355  12.7163  12.7827  12.8243  12.8638
    12.9094  12.9896  13.0041  13.0737  13.0798  13.1368  13.1754  13.2973
    13.4935  13.6930  14.0289  14.0430  14.9322  15.3508  15.7125  15.8642
    15.9069  16.2180  16.2814  16.5983  16.8630  17.0155  17.1818  17.4015
    17.5759  17.9015  18.0242  18.1420  18.4699  18.5725  18.9788  19.2545
    19.3245  19.7776

          k = 0.0000-0.3536-0.6802 ( 13702 PWs)   bands (ev):

   -66.3529 -66.3509 -66.3502 -66.3501 -66.3497 -66.3332 -66.2990 -61.9664
   -35.1349 -35.1184 -35.1183 -35.1182 -35.1181 -35.1021 -35.0939 -35.0928
   -35.0926 -35.0925 -35.0862 -35.0735 -35.0678 -35.0656 -35.0655 -35.0637
   -35.0609 -35.0592 -35.0486 -35.0350 -35.0253 -30.7936 -30.7924 -30.7878
     7.0162   7.0782   7.7824   7.8564   8.5046   8.5577   8.7208   8.7446
     8.7564   8.7693   8.8179   8.8518   8.9021   8.9413   8.9875   9.0260
     9.0586   9.1319   9.1487   9.1944   9.2316   9.2550   9.3156   9.3413
     9.3939   9.4573   9.5161   9.5282   9.5613   9.5995   9.6799   9.7220
     9.7452   9.7973   9.9087   9.9695   9.9838  10.0634  10.0748  10.1506
    10.1616  10.1801  10.2410  10.2840  10.2930  10.3292  10.3608  10.4032
    10.4620  10.5075  10.5365  10.5709  10.6067  10.6468  10.6872  10.7358
    10.7465  10.7858  10.8339  10.8518  10.9055  10.9799  11.0320  11.0347
    11.1016  11.1163  11.1976  11.2322  11.2640  11.2779  11.3742  11.3887
    11.4104  11.4654  11.5008  11.5586  11.6365  11.6915  11.7060  11.7296
    11.7369  11.7627  11.8179  11.8367  11.8733  11.9133  11.9560  11.9738
    12.0118  12.0374  12.0484  12.1127  12.1198  12.1416  12.1808  12.2214
    12.2505  12.2875  12.2880  12.3380  12.3492  12.3932  12.4101  12.4331
    12.4935  12.5110  12.6369  12.6582  12.7239  12.7512  12.7808  12.8985
    12.9281  12.9921  13.0643  13.0887  13.1205  13.2461  13.3099  13.3969
    13.7379  13.9181  14.1994  14.3013  14.6032  14.6728  15.0556  15.2852
    15.5403  15.6264  15.8278  15.9304  16.3556  16.4219  16.8470  17.0966
    17.2420  17.5877  17.7004  17.9492  18.1215  18.7039  19.1520  19.2490
    19.6166  19.7923

          k = 0.0000-0.3536 0.9522 ( 13693 PWs)   bands (ev):

   -66.3529 -66.3509 -66.3502 -66.3501 -66.3497 -66.3333 -66.2990 -61.9664
   -35.1349 -35.1184 -35.1183 -35.1183 -35.1181 -35.1021 -35.0939 -35.0928
   -35.0927 -35.0925 -35.0862 -35.0735 -35.0678 -35.0656 -35.0655 -35.0637
   -35.0609 -35.0592 -35.0486 -35.0350 -35.0253 -30.7936 -30.7924 -30.7878
     7.6890   7.7850   8.2416   8.2537   8.3044   8.3856   8.4146   8.4874
     8.5697   8.6328   8.6746   8.7289   8.7499   8.7856   8.8441   8.9615
     9.0145   9.1316   9.2181   9.2258   9.2483   9.2568   9.3073   9.3409
     9.3744   9.4315   9.4542   9.4743   9.5357   9.5630   9.6080   9.6234
     9.6840   9.7256   9.7790   9.8597   9.8802   9.9123   9.9384   9.9762
     9.9965  10.0548  10.0968  10.1810  10.2822  10.3075  10.3845  10.3974
    10.4111  10.4602  10.4856  10.5311  10.5682  10.5823  10.6373  10.6772
    10.7123  10.7615  10.7890  10.8150  10.8747  10.9907  11.0542  11.1125
    11.1756  11.2662  11.3449  11.3803  11.4197  11.4334  11.5758  11.6286
    11.6527  11.6923  11.7623  11.7997  11.8318  11.8546  11.8967  11.9279
    11.9544  11.9638  11.9880  12.0158  12.0315  12.0689  12.0766  12.0861
    12.1239  12.1724  12.1807  12.2186  12.2517  12.2599  12.2882  12.3110
    12.3188  12.3552  12.3723  12.3810  12.4188  12.4581  12.4961  12.5473
    12.6068  12.6793  12.7307  12.7726  12.7831  12.8652  12.8929  12.9423
    12.9637  12.9785  12.9963  13.0609  13.0928  13.1209  13.1636  13.1922
    13.2020  13.2269  13.4977  13.8860  13.9832  14.0363  14.2071  14.3546
    14.8659  14.9551  15.6258  15.7145  16.2614  16.3950  16.8419  17.0263
    17.2067  17.3900  17.5801  17.6327  17.8922  18.1270  18.2798  19.0453
    19.3097  19.8205

          k = 0.0000-0.3536 0.4081 ( 13687 PWs)   bands (ev):

   -66.3529 -66.3509 -66.3502 -66.3501 -66.3497 -66.3332 -66.2990 -61.9664
   -35.1349 -35.1183 -35.1183 -35.1182 -35.1182 -35.1021 -35.0939 -35.0928
   -35.0926 -35.0925 -35.0862 -35.0735 -35.0678 -35.0656 -35.0655 -35.0637
   -35.0609 -35.0592 -35.0486 -35.0350 -35.0253 -30.7936 -30.7924 -30.7878
     6.4793   7.3357   8.1056   8.2428   8.3560   8.3693   8.3880   8.5077
     8.5586   8.6236   8.7721   8.9488   8.9656   8.9838   9.0306   9.0505
     9.0646   9.1038   9.1634   9.2531   9.2865   9.3834   9.4045   9.4336
     9.4620   9.4950   9.5343   9.5426   9.5707   9.5995   9.6139   9.6856
     9.7084   9.7283   9.7801   9.8005   9.8311   9.9272   9.9738  10.0119
    10.1334  10.1734  10.2227  10.2736  10.3411  10.3792  10.4175  10.4453
    10.4716  10.5577  10.5733  10.5960  10.6422  10.7126  10.7643  10.8004
    10.8290  10.8650  10.9088  10.9945  11.0191  11.0329  11.1079  11.1277
    11.2316  11.3232  11.3707  11.3840  11.4092  11.4167  11.4511  11.4856
    11.5591  11.5754  11.6667  11.7295  11.7813  11.8320  11.8478  11.8820
    11.9300  11.9523  11.9673  11.9832  12.0055  12.0296  12.0426  12.0858
    12.0960  12.1159  12.1379  12.1498  12.1812  12.1977  12.2433  12.2842
    12.3131  12.3251  12.3374  12.3487  12.3696  12.3887  12.4031  12.4416
    12.4701  12.5220  12.5710  12.5864  12.6170  12.6669  12.6914  12.7254
    12.7758  12.8702  12.8786  12.8957  12.9284  12.9923  13.0262  13.0649
    13.0908  13.1482  13.2021  13.2419  14.3510  14.5604  14.7872  15.0910
    15.2567  15.5714  15.8153  16.3453  16.6307  16.8220  17.0656  17.1462
    17.5943  17.7940  17.9024  18.1423  18.3960  18.5299  18.7852  19.1708
    19.8468  19.9895

          k = 0.5303 0.1768 0.2721 ( 13658 PWs)   bands (ev):

   -66.3529 -66.3508 -66.3503 -66.3500 -66.3497 -66.3332 -66.2990 -61.9663
   -35.1349 -35.1183 -35.1183 -35.1182 -35.1182 -35.1021 -35.0939 -35.0927
   -35.0926 -35.0926 -35.0862 -35.0734 -35.0681 -35.0659 -35.0653 -35.0632
   -35.0608 -35.0594 -35.0486 -35.0349 -35.0253 -30.7936 -30.7924 -30.7877
     6.6346   6.6635   7.4763   7.4978   8.4151   8.4484   8.5947   8.6932
     8.7848   8.7879   8.8690   8.8918   9.2082   9.2152   9.2266   9.2451
     9.2596   9.2645   9.2858   9.2895   9.3238   9.3658   9.3698   9.4258
     9.4755   9.4859   9.5389   9.5944   9.6578   9.7114   9.7765   9.8267
     9.8854   9.9085  10.0506  10.0726  10.1077  10.1097  10.1560  10.1664
    10.1735  10.2295  10.2537  10.3332  10.3529  10.3660  10.4084  10.4249
    10.4607  10.5323  10.5398  10.5507  10.6356  10.6364  10.6576  10.7145
    10.7271  10.7759  10.7877  10.8386  10.8602  10.8861  10.9229  10.9698
    11.0046  11.0196  11.1277  11.1296  11.2126  11.2786  11.2945  11.3141
    11.3206  11.3329  11.3796  11.4041  11.4406  11.4588  11.5388  11.5912
    11.6019  11.6514  11.6723  11.7537  11.7540  11.7798  11.8045  11.8664
    11.8734  11.9402  11.9537  12.0179  12.0403  12.0491  12.1396  12.1463
    12.2169  12.2564  12.2894  12.3082  12.3153  12.3702  12.3927  12.4071
    12.4434  12.5482  12.6139  12.6797  12.7431  12.8651  12.8770  12.9029
    12.9200  12.9215  12.9980  13.0539  13.1667  13.1981  13.2754  13.2943
    13.2986  14.5740  14.8511  14.9432  15.2440  15.4642  15.6432  15.7390
    15.8607  16.2458  16.3159  16.3743  16.9079  16.9863  17.0675  17.1314
    17.1571  17.3445  17.6928  17.8760  17.9549  18.1217  19.4419  19.6308
    19.8317  19.8357

          k = 0.5303 0.1768-0.2721 ( 13683 PWs)   bands (ev):

   -66.3529 -66.3508 -66.3504 -66.3500 -66.3497 -66.3332 -66.2990 -61.9664
   -35.1349 -35.1183 -35.1183 -35.1182 -35.1182 -35.1021 -35.0939 -35.0927
   -35.0927 -35.0926 -35.0862 -35.0734 -35.0681 -35.0659 -35.0653 -35.0632
   -35.0609 -35.0594 -35.0486 -35.0350 -35.0253 -30.7936 -30.7924 -30.7878
     6.6490   7.4857   7.6135   8.1388   8.3893   8.4347   8.5209   8.6305
[...]
    11.9681  11.9892  12.0034  12.0494  12.0913  12.1051  12.2321  12.2528
    12.2653  12.2699  12.3135  12.3196  12.4672  12.6066  12.6605  12.7155
    12.7513  12.7784  12.7839  12.7890  12.8679  14.0464  14.0505  14.1580
    14.4324  15.1046  15.4388  15.4588  15.5081  15.5731  15.6572  15.7409
    15.7986  15.9925  16.1174  16.7490  16.8560  16.9326  16.9629  16.9720
    17.0017  17.0243  17.0974  17.3476  17.3861  17.3916  17.4122  17.4220
    17.4240  17.4503  17.4564  17.4671  17.4921  17.4949  17.6661  17.6857
    17.8783  18.0402  18.0477  18.0631  18.2586  18.2998  18.4638  18.4752
    18.4868  18.4934  18.8194  18.8243  19.4356  19.7599  20.0251  20.3694
    20.3973  20.4431

          k =-0.3536 0.3536-0.5441 ( 13686 PWs)   bands (ev):

   -66.6055 -61.8074 -61.8069 -61.8066 -61.8065 -61.8059 -61.7920 -61.7672
   -35.3712 -35.3403 -35.3240 -30.6447 -30.6415 -30.6413 -30.6408 -30.6407
   -30.6383 -30.6343 -30.6343 -30.6328 -30.6327 -30.6325 -30.6325 -30.6325
   -30.6287 -30.6224 -30.6215 -30.6210 -30.6137 -30.5974 -30.5952 -30.5933
     7.0405   7.1195   8.0441   8.1396   8.7217   8.8290   8.8343   8.9619
     9.0202   9.0691   9.1393   9.1947   9.3076   9.3601   9.3751   9.3859
     9.4199   9.4307   9.4789   9.4995   9.5014   9.5404   9.5657   9.6540
     9.7262   9.7537   9.8123   9.8453   9.8909   9.9901   9.9989  10.0427
    10.1051  10.1353  10.2108  10.2664  10.3427  10.3593  10.4066  10.4298
    10.4627  10.5367  10.6185  10.6337  10.7304  10.8451  10.8554  10.9216
    10.9646  10.9920  11.0172  11.0363  11.0398  11.1065  11.1452  11.1575
    11.1696  11.1917  11.3382  11.4082  11.4259  11.4429  11.5132  11.5517
    11.5827  11.7484  11.7696  11.7811  11.8383  11.8588  11.9569  11.9822
    11.9977  12.1447  12.2060  12.2143  12.2708  12.2769  12.2779  12.3536
    12.3718  12.3933  12.4226  12.4353  12.5453  12.5540  12.5982  12.7408
    12.7618  12.8319  12.9145  13.0050  13.1384  13.2463  13.3401  13.8309
    13.9836  14.6145  14.6346  14.7325  14.9703  15.3311  15.3801  15.6172
    15.6246  15.7271  15.8762  17.0515  17.0677  17.1106  17.1462  17.1589
    17.2374  17.2635  17.2981  17.3207  17.3446  17.3746  17.4081  17.4113
    17.4341  17.4429  17.4684  17.4803  17.4956  17.5038  17.6899  17.7365
    17.7751  17.8693  17.8834  17.9390  18.0977  18.2248  18.3543  18.5082
    18.6754  18.7690  18.8087  18.9139  19.0701  19.2491  19.5551  19.5801
    20.6560  20.6785

          k =-0.3536 0.3536 1.0883 ( 13708 PWs)   bands (ev):

   -66.6054 -61.8073 -61.8069 -61.8066 -61.8065 -61.8059 -61.7919 -61.7672
   -35.3711 -35.3403 -35.3240 -30.6447 -30.6415 -30.6413 -30.6408 -30.6407
   -30.6382 -30.6343 -30.6343 -30.6329 -30.6328 -30.6325 -30.6325 -30.6325
   -30.6287 -30.6224 -30.6215 -30.6209 -30.6137 -30.5974 -30.5952 -30.5933
     8.1617   8.1940   8.3672   8.4763   8.5019   8.5022   8.6527   8.7429
     8.8575   8.9297   8.9636   8.9827   9.1398   9.1660   9.1723   9.2160
     9.3601   9.4340   9.5467   9.5737   9.6206   9.6887   9.7043   9.7615
     9.7635   9.7702   9.7809   9.9124   9.9291   9.9350   9.9729   9.9970
    10.0324  10.0576  10.0959  10.1099  10.1124  10.1356  10.1658  10.2182
    10.2403  10.3864  10.4468  10.4907  10.4915  10.5472  10.5964  10.7160
    10.7419  10.7754  10.8081  10.9377  11.1032  11.2687  11.3099  11.3142
    11.3400  11.3698  11.4022  11.5002  11.5349  11.5537  11.5689  11.5817
    11.6712  11.7096  11.8181  11.9633  11.9898  12.0010  12.0453  12.1244
    12.1503  12.1996  12.2471  12.2657  12.2682  12.2986  12.3699  12.4461
    12.4704  12.4744  12.5142  12.5267  12.5333  12.5574  12.7200  12.7484
    12.7804  12.7998  12.9628  12.9992  13.0654  13.3858  13.8396  13.8862
    14.0449  14.0544  14.0630  14.3860  14.7381  15.3305  15.4564  15.5147
    15.5761  15.6358  15.9147  16.9409  16.9494  16.9613  16.9707  17.0770
    17.2435  17.2656  17.3202  17.3806  17.3853  17.3985  17.4137  17.4274
    17.4438  17.4847  17.4967  17.5024  17.5665  17.6121  17.6204  17.6857
    17.7495  17.8453  17.8684  17.9680  17.9987  18.0476  18.0502  18.3177
    18.3450  18.4654  18.4866  18.5004  18.5048  18.5143  19.2958  19.6359
    19.9155  19.9797

          k =-0.5303 0.1768-0.1360 ( 13660 PWs)   bands (ev):

   -66.6055 -61.8073 -61.8072 -61.8065 -61.8064 -61.8060 -61.7920 -61.7672
   -35.3712 -35.3403 -35.3239 -30.6449 -30.6415 -30.6411 -30.6409 -30.6407
   -30.6383 -30.6347 -30.6336 -30.6327 -30.6326 -30.6325 -30.6325 -30.6318
   -30.6296 -30.6230 -30.6213 -30.6207 -30.6136 -30.5974 -30.5952 -30.5933
     6.6288   6.7191   7.7329   7.8019   8.5284   8.7143   8.8838   8.9758
     9.0094   9.0470   9.2462   9.2524   9.3145   9.4105   9.4688   9.5021
     9.5465   9.6197   9.6746   9.7005   9.7266   9.7609   9.7985   9.8596
     9.9253   9.9257   9.9859  10.0063  10.0482  10.0688  10.0759  10.1159
    10.1196  10.1540  10.1571  10.1676  10.2701  10.3161  10.3724  10.4060
    10.4088  10.4455  10.5026  10.6090  10.7259  10.7491  10.8220  10.8251
    10.9094  10.9189  10.9284  10.9603  11.0802  11.1053  11.1765  11.2044
    11.2555  11.2614  11.2860  11.3423  11.3855  11.4492  11.4545  11.5052
    11.5451  11.6027  11.6256  11.6433  11.6622  11.6848  11.7068  11.8420
    11.8738  11.9499  11.9739  12.0480  12.0699  12.1544  12.2195  12.2302
    12.3486  12.4632  12.4676  12.5007  12.5274  12.5586  12.6179  12.6561
    12.7175  12.8774  12.8929  13.1144  13.2581  13.7557  13.8494  14.5571
    14.6727  14.8989  15.0945  15.2147  15.2899  15.3141  15.3392  15.8251
    15.8548  16.1363  16.2114  16.6226  16.6979  17.0855  17.0966  17.1765
    17.1959  17.2336  17.2466  17.3367  17.3419  17.3844  17.3941  17.4220
    17.4307  17.4635  17.4825  17.5126  17.5382  17.5875  17.7139  17.7418
    17.8861  17.9833  18.1112  18.2208  18.2963  18.3435  18.5080  18.5318
    18.5860  18.6478  18.6638  18.6694  19.1634  19.2950  19.9442  20.1442
    20.7649  20.9128

          k =-0.5303 0.1768-0.6802 ( 13694 PWs)   bands (ev):

   -66.6055 -61.8073 -61.8072 -61.8065 -61.8064 -61.8060 -61.7920 -61.7672
   -35.3712 -35.3403 -35.3240 -30.6449 -30.6415 -30.6411 -30.6409 -30.6407
   -30.6383 -30.6347 -30.6335 -30.6328 -30.6327 -30.6325 -30.6325 -30.6318
   -30.6296 -30.6230 -30.6213 -30.6207 -30.6136 -30.5974 -30.5952 -30.5933
     7.4067   7.5020   7.5191   7.5739   8.8401   8.9172   9.0029   9.0356
     9.0903   9.1076   9.1561   9.1815   9.2913   9.2967   9.3199   9.3592
     9.3722   9.4156   9.5327   9.5422   9.5716   9.5941   9.6190   9.6261
     9.6473   9.7354   9.7483   9.8034   9.9091   9.9373   9.9660  10.0846
    10.1262  10.1470  10.2260  10.2694  10.3716  10.4034  10.4107  10.4608
    10.5051  10.5439  10.5575  10.5912  10.6253  10.6686  10.7974  10.9015
    10.9986  11.0175  11.0451  11.0527  11.0609  11.1344  11.1505  11.1661
    11.1734  11.2121  11.2513  11.3010  11.3783  11.4264  11.4408  11.4678
    11.4726  11.5996  11.6508  11.7680  11.8302  11.8700  11.8979  12.0812
    12.0952  12.1318  12.1320  12.2293  12.2373  12.2815  12.2865  12.3313
    12.3492  12.4163  12.4488  12.4673  12.5076  12.5940  12.6222  12.6852
    12.7388  13.2008  13.2439  13.3685  13.4373  13.4971  13.5135  13.6475
    13.7417  14.3234  14.3435  14.6065  14.8173  15.3297  15.4569  15.5240
    15.6423  16.1066  16.1549  16.9672  16.9678  17.1336  17.1647  17.2500
    17.2915  17.2997  17.3167  17.3792  17.3951  17.4202  17.4245  17.4356
    17.4451  17.4691  17.4878  17.5017  17.5996  17.6102  17.6119  17.7541
    17.7584  17.7847  17.9704  18.0469  18.2197  18.3049  18.4468  18.4558
    18.4894  18.4936  18.9268  18.9664  19.0561  19.0899  19.2466  19.3226
    20.0367  20.1806

          k =-0.5303 0.1768 0.9522 ( 13712 PWs)   bands (ev):

   -66.6054 -61.8072 -61.8071 -61.8066 -61.8064 -61.8060 -61.7919 -61.7672
   -35.3711 -35.3403 -35.3240 -30.6450 -30.6415 -30.6411 -30.6409 -30.6407
   -30.6383 -30.6347 -30.6335 -30.6328 -30.6327 -30.6325 -30.6325 -30.6318
   -30.6296 -30.6229 -30.6213 -30.6207 -30.6136 -30.5974 -30.5952 -30.5933
     8.0395   8.0887   8.1524   8.2050   8.6218   8.7194   8.8080   8.8432
     8.8707   8.9415   8.9673   8.9832   9.1377   9.1416   9.2150   9.3044
     9.4022   9.4274   9.4969   9.5354   9.5673   9.6375   9.6635   9.7098
     9.7477   9.7590   9.7690   9.8274   9.8641   9.9064   9.9350   9.9545
    10.0324  10.0542  10.1349  10.1534  10.1811  10.1952  10.2061  10.2173
    10.2515  10.3013  10.4412  10.4843  10.6933  10.7452  10.7469  10.8797
    10.8956  10.9173  10.9390  10.9728  11.1658  11.2250  11.2865  11.2891
    11.3029  11.3554  11.3605  11.4139  11.4780  11.5220  11.5271  11.6891
    11.7449  11.8000  11.8942  11.9342  11.9774  11.9948  12.0438  12.0862
    12.1796  12.1817  12.1929  12.1996  12.2762  12.3845  12.4089  12.4180
    12.4360  12.4633  12.5160  12.5476  12.5501  12.5873  12.6432  12.6668
    12.8415  12.9682  12.9981  12.9983  13.0388  13.3532  13.5867  13.6399
    13.7300  14.0063  14.0599  14.3483  14.4803  15.1114  15.1139  15.6223
    15.6909  15.7570  15.9562  16.9192  16.9553  17.0146  17.0374  17.0879
    17.1480  17.2639  17.2794  17.3538  17.3675  17.4017  17.4110  17.4374
    17.4444  17.4728  17.4918  17.5328  17.5629  17.5747  17.6396  17.6470
    17.7219  17.7392  17.8101  17.8123  17.9262  18.2323  18.3407  18.4099
    18.4240  18.4749  18.4772  18.5632  18.5855  18.6398  18.6989  18.7640
    20.0932  20.3297

          k =-0.5303 0.1768 0.4081 ( 13670 PWs)   bands (ev):

   -66.6055 -61.8073 -61.8072 -61.8066 -61.8064 -61.8060 -61.7920 -61.7672
   -35.3712 -35.3403 -35.3240 -30.6449 -30.6415 -30.6411 -30.6409 -30.6407
   -30.6383 -30.6347 -30.6335 -30.6327 -30.6326 -30.6326 -30.6325 -30.6318
   -30.6296 -30.6229 -30.6213 -30.6207 -30.6136 -30.5974 -30.5952 -30.5933
     6.9113   6.9953   8.5082   8.5278   8.5941   8.6637   8.7191   8.7727
     8.8286   8.9006   9.1614   9.1724   9.2802   9.3177   9.3613   9.4072
     9.4093   9.4913   9.5587   9.5597   9.5825   9.6262   9.7119   9.7180
     9.7585   9.8525   9.8785   9.8994   9.9047   9.9849   9.9907  10.0211
    10.0762  10.0782  10.1543  10.1920  10.2238  10.2250  10.3791  10.3794
    10.4714  10.4965  10.5394  10.6064  10.7762  10.8213  10.9172  10.9322
    10.9708  11.0443  11.1048  11.1117  11.1268  11.1638  11.1745  11.1832
    11.2222  11.2295  11.3980  11.4439  11.4706  11.5348  11.5354  11.6681
    11.7065  11.7372  11.7658  11.7751  11.7994  11.8817  11.9095  11.9160
    12.0056  12.0586  12.0621  12.1753  12.1789  12.2401  12.2690  12.3791
    12.3840  12.4372  12.4659  12.5052  12.5521  12.5777  12.6022  12.6923
    12.7105  12.8014  12.8424  12.8659  12.8728  13.1606  13.2060  14.3604
    14.4239  14.5144  14.6806  14.7540  14.9273  15.3217  15.3516  15.4478
    15.4651  15.5516  15.8411  16.8243  16.8267  16.9733  17.0987  17.1622
    17.2389  17.2446  17.2796  17.2926  17.3241  17.3488  17.3740  17.4052
    17.4078  17.4469  17.4621  17.4912  17.5726  17.5777  17.6745  17.7068
    17.8015  17.8357  17.8891  18.0358  18.0735  18.1626  18.3134  18.4742
    18.4963  18.5245  18.6688  18.7139  19.5446  19.6200  20.0094  20.0143
    20.0949  20.1811

          k = 0.0000 0.7071 0.2721 ( 13680 PWs)   bands (ev):

   -66.6055 -61.8073 -61.8072 -61.8065 -61.8063 -61.8061 -61.7920 -61.7672
   -35.3712 -35.3403 -35.3239 -30.6451 -30.6415 -30.6410 -30.6409 -30.6407
   -30.6383 -30.6349 -30.6326 -30.6326 -30.6326 -30.6326 -30.6318 -30.6313
   -30.6312 -30.6235 -30.6212 -30.6206 -30.6135 -30.5974 -30.5952 -30.5933
     7.0131   7.1398   7.1515   7.1607   8.7101   8.9431   8.9619   8.9706
     9.1237   9.1554   9.2626   9.2867   9.3143   9.3145   9.4101   9.4229
     9.5393   9.5798   9.6077   9.6341   9.7467   9.7736   9.7775   9.8672
     9.8819   9.8822   9.8870   9.8883  10.0425  10.1120  10.1405  10.1427
    10.1672  10.1873  10.1930  10.2151  10.2490  10.2517  10.2567  10.2699
    10.4904  10.5790  10.6073  10.6283  10.6430  10.7404  10.8337  10.9786
    11.0486  11.0722  11.0988  11.1503  11.1548  11.1685  11.1750  11.1817
    11.1905  11.1983  11.2039  11.2931  11.2961  11.3089  11.3124  11.3752
    11.4042  11.4159  11.5645  11.6985  11.6995  11.7040  11.7162  11.7372
    11.7485  11.8746  11.9295  12.1152  12.1233  12.1361  12.1872  12.2020
    12.3457  12.4296  12.4541  12.5824  12.5930  12.5987  12.6007  12.6688
    12.7090  13.1471  13.1735  13.2789  13.4725  13.9948  14.0228  14.0843
    14.5670  14.9453  14.9647  15.0126  15.0295  15.0694  15.1624  15.6461
    15.7631  16.3050  16.3187  16.5651  16.7733  17.1905  17.2075  17.2237
    17.3192  17.3268  17.3391  17.3525  17.3547  17.3716  17.3815  17.4115
    17.4224  17.5263  17.6643  17.6652  17.6940  17.7040  17.7272  17.7693
    17.8885  18.1107  18.1495  18.2070  18.2416  18.2436  18.4862  18.4917
    18.5006  18.7396  18.7483  18.7980  19.3384  19.3880  19.4672  19.5030
    20.8206  20.9137

          k = 0.0000 0.7071-0.2721 ( 13688 PWs)   bands (ev):

   -66.6055 -61.8073 -61.8072 -61.8066 -61.8063 -61.8061 -61.7920 -61.7672
   -35.3712 -35.3403 -35.3240 -30.6451 -30.6415 -30.6410 -30.6409 -30.6407
   -30.6383 -30.6349 -30.6327 -30.6327 -30.6326 -30.6325 -30.6318 -30.6313
   -30.6312 -30.6235 -30.6212 -30.6205 -30.6135 -30.5974 -30.5952 -30.5933
     7.0723   7.1566   7.9886   8.0545   8.7879   8.8128   8.8537   8.9045
     8.9597   8.9815   9.1803   9.1973   9.2233   9.2660   9.3164   9.3663
     9.3777   9.4884   9.5828   9.5843   9.6494   9.6655   9.7233   9.7807
     9.7879   9.8542   9.8603   9.8683   9.8684   9.8872   9.9650  10.1299
    10.1443  10.1557  10.1898  10.2079  10.2141  10.2344  10.2423  10.2648
    10.3323  10.3813  10.5798  10.6340  10.7490  10.8178  10.8785  11.0559
    11.0837  11.0839  11.0958  11.1310  11.1550  11.1772  11.1783  11.1952
    11.2105  11.2796  11.2913  11.3112  11.3279  11.3555  11.4065  11.5253
    11.5549  11.6371  11.6439  11.7264  11.8060  11.8432  11.9033  12.0594
    12.0741  12.1164  12.1166  12.1304  12.1641  12.2227  12.2428  12.3005
    12.3069  12.5433  12.5665  12.5876  12.5938  12.6164  12.6249  12.6449
    12.6529  13.0955  13.1269  13.1833  13.1948  13.2139  13.4662  14.0353
    14.0403  14.2414  14.2815  14.9896  15.0778  15.1864  15.2612  15.2788
    15.6323  16.2917  16.4032  16.5270  16.5383  17.0402  17.1729  17.2001
    17.2304  17.2810  17.3096  17.3476  17.3543  17.3999  17.4076  17.4090
    17.4774  17.5051  17.5058  17.5412  17.6003  17.6602  17.6899  17.7080
    17.7398  17.7752  17.9920  18.0460  18.2397  18.2608  18.3622  18.4041
    18.4238  18.4675  18.6301  18.6403  18.7321  18.8060  19.4036  19.4552
    20.8271  20.9802

          k = 0.0000 0.7071 1.3603 ( 13696 PWs)   bands (ev):

   -66.6054 -61.8073 -61.8071 -61.8066 -61.8063 -61.8061 -61.7919 -61.7672
   -35.3711 -35.3403 -35.3240 -30.6452 -30.6415 -30.6410 -30.6409 -30.6408
   -30.6383 -30.6349 -30.6327 -30.6327 -30.6327 -30.6326 -30.6319 -30.6313
   -30.6311 -30.6234 -30.6213 -30.6205 -30.6135 -30.5974 -30.5952 -30.5933
     7.9208   8.0293   8.0560   8.0832   8.6644   8.7446   8.8778   8.9413
     8.9579   8.9597   8.9635   8.9721   9.1316   9.1509   9.2252   9.3116
     9.3185   9.4331   9.5387   9.5424   9.5509   9.5834   9.5962   9.7395
     9.7422   9.7803   9.7901   9.7949   9.8426   9.8474   9.8761   9.8785
     9.9550  10.1199  10.1570  10.1637  10.2134  10.2271  10.2400  10.2458
    10.2501  10.2893  10.4390  10.4668  10.7663  10.8248  11.0201  11.0532
    11.0683  11.0735  11.1255  11.1540  11.1715  11.1929  11.2717  11.2746
    11.2827  11.3257  11.4040  11.4149  11.4849  11.5469  11.5744  11.5828
    11.6279  11.7978  11.8658  11.9490  11.9691  12.1108  12.1145  12.1190
    12.1219  12.1306  12.1337  12.2504  12.2931  12.2941  12.3030  12.3265
    12.4192  12.5700  12.5841  12.5867  12.6079  12.6103  12.6213  12.6301
    12.6881  13.0461  13.0954  13.0954  13.1462  13.1776  13.2053  13.2484
    13.6001  14.0040  14.0102  14.1310  14.4265  15.0413  15.0654  15.4183
    15.6078  16.3234  16.3506  16.3580  16.6380  17.0302  17.0420  17.0521
    17.1898  17.2164  17.2474  17.3255  17.3457  17.3465  17.4079  17.4201
    17.4510  17.4541  17.4777  17.5510  17.5574  17.5749  17.6684  17.6789
    17.6998  17.7022  17.7284  17.7590  17.8803  18.1238  18.3785  18.3814
    18.4072  18.4701  18.4851  18.4917  18.5375  18.7065  18.7610  18.7738
    20.8200  21.0061

     the Fermi energy is    15.5170 ev

!    total energy              =  -14693.96552356 Ry
     Harris-Foulkes estimate   =  -14693.96550957 Ry
     estimated scf accuracy    <       0.00000036 Ry

     total all-electron energy =   -626921.561246 Ry

     The total energy is the sum of the following terms:

     one-electron contribution =    -698.69442611 Ry
     hartree contribution      =     651.74966625 Ry
     xc contribution           =    -738.07617324 Ry
     ewald contribution        =   -2207.56121140 Ry
     Hubbard energy            =       0.46837053 Ry
     one-center paw contrib.   =  -11701.85174960 Ry

     total magnetization       =    25.57 Bohr mag/cell
     absolute magnetization    =    36.76 Bohr mag/cell

     convergence has been achieved in  20 iterations

     Writing output data file mnau2.save/
 
     init_run     :     21.79s CPU     22.59s WALL (       1 calls)
     electrons    :   1003.84s CPU   1032.86s WALL (       1 calls)

     Called by init_run:
     wfcinit      :     19.45s CPU     20.13s WALL (       1 calls)
     potinit      :      1.20s CPU      1.23s WALL (       1 calls)
     hinit0       :      0.69s CPU      0.72s WALL (       1 calls)

     Called by electrons:
     c_bands      :    872.76s CPU    896.58s WALL (      20 calls)
     sum_band     :    107.86s CPU    111.64s WALL (      20 calls)
     v_of_rho     :      1.86s CPU      1.88s WALL (      21 calls)
     newd         :      6.92s CPU      7.75s WALL (      21 calls)
     PAW_pot      :     15.08s CPU     15.19s WALL (      21 calls)
     mix_rho      :      0.29s CPU      0.31s WALL (      20 calls)

     Called by c_bands:
     init_us_2    :      8.87s CPU      8.92s WALL (    2520 calls)
     cegterg      :    831.65s CPU    854.93s WALL (    1200 calls)

     Called by sum_band:
     sum_band:bec :      1.01s CPU      1.02s WALL (    1200 calls)
     addusdens    :     12.88s CPU     14.21s WALL (      20 calls)

     Called by *egterg:
     h_psi        :    366.68s CPU    378.51s WALL (    4331 calls)
     s_psi        :     54.93s CPU     55.06s WALL (    4391 calls)
     g_psi        :      1.98s CPU      2.00s WALL (    3071 calls)
     cdiaghg      :    295.57s CPU    300.95s WALL (    4271 calls)

     Called by h_psi:
     h_psi:pot    :    346.13s CPU    355.30s WALL (    4331 calls)
     h_psi:calbec :     52.37s CPU     54.78s WALL (    4331 calls)
     vloc_psi     :    239.92s CPU    246.04s WALL (    4331 calls)
     add_vuspsi   :     53.80s CPU     54.45s WALL (    4331 calls)
     vhpsi        :     18.04s CPU     18.12s WALL (    4331 calls)

     General routines
     calbec       :     85.29s CPU     88.54s WALL (   11122 calls)
     fft          :      0.94s CPU      0.97s WALL (     521 calls)
     ffts         :      0.04s CPU      0.05s WALL (      82 calls)
     fftw         :    266.11s CPU    272.74s WALL ( 1177622 calls)
     interpolate  :      0.11s CPU      0.11s WALL (      42 calls)
     davcio       :      0.01s CPU      0.37s WALL (      60 calls)
 
     Parallel routines
     fft_scatt_xy :     33.54s CPU     34.28s WALL ( 1178225 calls)
     fft_scatt_yz :     83.86s CPU     86.27s WALL ( 1178225 calls)

     Hubbard U routines
     new_ns       :      4.91s CPU      5.17s WALL (      20 calls)
     vhpsi        :     18.04s CPU     18.12s WALL (    4331 calls)
 
     PWSCF        : 17m14.48s CPU    17m58.49s WALL

 
   This run was terminated on:  12:43:33  26Mar2019            

=------------------------------------------------------------------------------=
   JOB DONE.
=------------------------------------------------------------------------------=
