
     Program PWSCF v.6.3MaX starts on 26Mar2019 at 12:43:33 

     This program is part of the open-source Quantum ESPRESSO suite
     for quantum simulation of materials; please cite
         "P. Giannozzi et al., J. Phys.:Condens. Matter 21 395502 (2009);
         "P. Giannozzi et al., J. Phys.:Condens. Matter 29 465901 (2017);
          URL http://www.quantum-espresso.org", 
     in publications or presentations arising from this work. More details at
     http://www.quantum-espresso.org/quote

     Parallel version (MPI), running on    16 processors

     MPI processes distributed on     1 nodes
     R & G space division:  proc/nbgrp/npool/nimage =      16
     Waiting for input...
     Reading input from standard input

     Current dimensions of program PWSCF are:
     Max number of different atomic species (ntypx) = 10
     Max number of k-points (npk) =  40000
     Max angular momentum in pseudopotentials (lmaxx) =  3
     Message from routine read_upf::
     Pseudo file ./pseudo/Mn.pbe-spn-kjpaw_psl.0.3.1.UPF has been successfully fixed on the fly.
To avoid this message in the future you can permanently fix 
 your pseudo files following instructions given in: 
https://gitlab.com/QEF/q-e/blob/master/upftools/how_to_fix_upf.md
               file Mn.pbe-spn-kjpaw_psl.0.3.1.UPF: wavefunction(s)  3P 3D renormalized
     Message from routine read_upf::
     Pseudo file ./pseudo/Mn.pbe-spn-kjpaw_psl.0.3.1.UPF has been successfully fixed on the fly.
To avoid this message in the future you can permanently fix 
 your pseudo files following instructions given in: 
https://gitlab.com/QEF/q-e/blob/master/upftools/how_to_fix_upf.md
               file Mn.pbe-spn-kjpaw_psl.0.3.1.UPF: wavefunction(s)  3P 3D renormalized
     Message from routine read_upf::
     Pseudo file ./pseudo/Au.pbe-dn-kjpaw_psl.0.1.UPF has been successfully fixed on the fly.
To avoid this message in the future you can permanently fix 
 your pseudo files following instructions given in: 
https://gitlab.com/QEF/q-e/blob/master/upftools/how_to_fix_upf.md
               file Au.pbe-dn-kjpaw_psl.0.1.UPF: wavefunction(s)  6S 6P 5D renormalized

     Subspace diagonalization in iterative solution of the eigenvalue problem:
     one sub-group per band group will be used
     scalapack distributed-memory algorithm (size of sub-group:  2*  2 procs)

 
     Parallelization info
     --------------------
     sticks:   dense  smooth     PW     G-vecs:    dense   smooth      PW
     Min         646     290     84                22663     6843    1075
     Max         647     291     85                22664     6844    1077
     Sum       10349    4645   1353               362619   109493   17211
 


     bravais-lattice index     =            0
     lattice parameter (alat)  =      18.0125  a.u.
     unit-cell volume          =    2685.0513 (a.u.)^3
     number of atoms/cell      =           24
     number of atomic types    =            3
     number of electrons       =       296.00
     number of Kohn-Sham states=          178
     kinetic-energy cutoff     =      45.0000  Ry
     charge density cutoff     =     400.0000  Ry
     convergence threshold     =      1.0E-06
     mixing beta               =       0.1000
     number of iterations used =            8  plain     mixing
     Exchange-correlation      = SLA PW PBX PBC ( 1  4  3  4 0 0)

     celldm(1)=  18.012490  celldm(2)=   0.000000  celldm(3)=   0.000000
     celldm(4)=   0.000000  celldm(5)=   0.000000  celldm(6)=   0.000000

     crystal axes: (cart. coord. in units of alat)
               a(1) = (   0.707107  -0.707107   0.000000 )  
               a(2) = (  -0.707107  -0.707107   0.000000 )  
               a(3) = (   0.176777   0.176777  -0.459443 )  

     reciprocal axes: (cart. coord. in units 2 pi/alat)
               b(1) = (  0.707107 -0.707107  0.000000 )  
               b(2) = ( -0.707107 -0.707107 -0.544138 )  
               b(3) = (  0.000000  0.000000 -2.176550 )  


     PseudoPot. # 1 for Mn read from file:
     ./pseudo/Mn.pbe-spn-kjpaw_psl.0.3.1.UPF
     MD5 check sum: 7eef95dd2aae66803482eea66ebeebf1
     Pseudo is Projector augmented-wave + core cor, Zval = 15.0
     Generated using "atomic" code by A. Dal Corso v.5.0.99 svn rev. 10869
     Shape of augmentation charge: PSQ
     Using radial grid of 1187 points,  6 beta functions with: 
                l(1) =   0
                l(2) =   0
                l(3) =   1
                l(4) =   1
                l(5) =   2
                l(6) =   2
     Q(r) pseudized with 0 coefficients 


     PseudoPot. # 2 for Mn read from file:
     ./pseudo/Mn.pbe-spn-kjpaw_psl.0.3.1.UPF
     MD5 check sum: 7eef95dd2aae66803482eea66ebeebf1
     Pseudo is Projector augmented-wave + core cor, Zval = 15.0
     Generated using "atomic" code by A. Dal Corso v.5.0.99 svn rev. 10869
     Shape of augmentation charge: PSQ
     Using radial grid of 1187 points,  6 beta functions with: 
                l(1) =   0
                l(2) =   0
                l(3) =   1
                l(4) =   1
                l(5) =   2
                l(6) =   2
     Q(r) pseudized with 0 coefficients 


     PseudoPot. # 3 for Au read from file:
     ./pseudo/Au.pbe-dn-kjpaw_psl.0.1.UPF
     MD5 check sum: 5c9b92683623e7ae2ab3f8e525febab6
     Pseudo is Projector augmented-wave + core cor, Zval = 11.0
     Generated using "atomic" code by A. Dal Corso v.5.0.2 svn rev. 9415
     Shape of augmentation charge: PSQ
     Using radial grid of 1279 points,  6 beta functions with: 
                l(1) =   0
                l(2) =   0
                l(3) =   1
                l(4) =   1
                l(5) =   2
                l(6) =   2
     Q(r) pseudized with 0 coefficients 


     atomic species   valence    mass     pseudopotential
        Mn1           15.00    54.93800     Mn( 1.00)
        Mn2           15.00    54.93800     Mn( 1.00)
        Au            11.00   196.96600     Au( 1.00)

     Starting magnetic structure 
     atomic species   magnetization
        Mn1          1.000
        Mn2         -1.000
        Au           0.000


     Full LDA+U calculation (l_max = 2) with parameters (eV):
     U(  1) =   3.1200   J(  1) =   0.7000   B(  1) =   0.0803
     U(  2) =   3.1200   J(  2) =   0.7000   B(  2) =   0.0803



      2 Sym. Ops. (no inversion) found



   Cartesian axes

     site n.     atom                  positions (alat units)
         1           Mn1 tau(   1) = (   0.3535534  -0.3535534   0.0000000  )
         2           Mn2 tau(   2) = (   0.0000000   0.0000000   0.0000000  )
         3           Mn2 tau(   3) = (   0.0000000  -0.3535534   0.0000000  )
         4           Mn1 tau(   4) = (   0.3535534  -0.7071068   0.0000000  )
         5           Mn1 tau(   5) = (  -0.3535534  -0.3535534   0.0000000  )
         6           Mn1 tau(   6) = (   0.0000000  -0.7071068   0.0000000  )
         7           Mn2 tau(   7) = (  -0.3535534  -0.7071068   0.0000000  )
         8           Mn1 tau(   8) = (   0.0000000  -1.0606602   0.0000000  )
         9           Au  tau(   9) = (  -0.1767767  -0.1767767  -0.1470216  )
        10           Au  tau(  10) = (   0.1767767  -0.5303301  -0.1470216  )
        11           Au  tau(  11) = (  -0.1767767  -0.5303301  -0.1470216  )
        12           Au  tau(  12) = (   0.1767767  -0.8838835  -0.1470216  )
        13           Au  tau(  13) = (  -0.5303301  -0.5303301  -0.1470216  )
        14           Au  tau(  14) = (  -0.1767767  -0.8838835  -0.1470216  )
        15           Au  tau(  15) = (   0.5303301  -0.5303301  -0.1470216  )
        16           Au  tau(  16) = (   0.1767767  -0.1767767  -0.1470216  )
        17           Au  tau(  17) = (   0.3535534  -0.3535534  -0.3124210  )
        18           Au  tau(  18) = (   0.0000000   0.0000000  -0.3124210  )
        19           Au  tau(  19) = (   0.0000000  -0.3535534  -0.3124210  )
        20           Au  tau(  20) = (   0.3535534  -0.7071068  -0.3124210  )
        21           Au  tau(  21) = (  -0.3535534  -0.3535534  -0.3124210  )
        22           Au  tau(  22) = (  -0.0000000  -0.7071068  -0.3124210  )
        23           Au  tau(  23) = (  -0.3535534  -0.7071068  -0.3124210  )
        24           Au  tau(  24) = (   0.0000000  -1.0606602  -0.3124210  )

     number of k points=    30 (tetrahedron method)
                       cart. coord. in units 2pi/alat
        k(    1) = (   0.0000000   0.0000000   0.0000000), wk =   0.0156250
        k(    2) = (   0.0000000   0.0000000  -0.5441376), wk =   0.0312500
        k(    3) = (   0.0000000   0.0000000   1.0882752), wk =   0.0156250
        k(    4) = (  -0.1767767  -0.1767767  -0.1360344), wk =   0.0312500
        k(    5) = (  -0.1767767  -0.1767767  -0.6801720), wk =   0.0312500
        k(    6) = (  -0.1767767  -0.1767767   0.9522408), wk =   0.0312500
        k(    7) = (  -0.1767767  -0.1767767   0.4081032), wk =   0.0312500
        k(    8) = (   0.3535534   0.3535534   0.2720688), wk =   0.0156250
        k(    9) = (   0.3535534   0.3535534  -0.2720688), wk =   0.0312500
        k(   10) = (   0.3535534   0.3535534   1.3603439), wk =   0.0156250
        k(   11) = (   0.1767767  -0.1767767   0.0000000), wk =   0.0312500
        k(   12) = (   0.1767767  -0.1767767  -0.5441376), wk =   0.0625000
        k(   13) = (   0.1767767  -0.1767767   1.0882752), wk =   0.0312500
        k(   14) = (   0.0000000  -0.3535534  -0.1360344), wk =   0.0625000
        k(   15) = (   0.0000000  -0.3535534  -0.6801720), wk =   0.0625000
        k(   16) = (   0.0000000  -0.3535534   0.9522408), wk =   0.0625000
        k(   17) = (   0.0000000  -0.3535534   0.4081032), wk =   0.0625000
        k(   18) = (   0.5303301   0.1767767   0.2720688), wk =   0.0312500
        k(   19) = (   0.5303301   0.1767767  -0.2720688), wk =   0.0625000
        k(   20) = (   0.5303301   0.1767767   1.3603439), wk =   0.0312500
        k(   21) = (  -0.3535534   0.3535534   0.0000000), wk =   0.0156250
        k(   22) = (  -0.3535534   0.3535534  -0.5441376), wk =   0.0312500
        k(   23) = (  -0.3535534   0.3535534   1.0882752), wk =   0.0156250
        k(   24) = (  -0.5303301   0.1767767  -0.1360344), wk =   0.0312500
        k(   25) = (  -0.5303301   0.1767767  -0.6801720), wk =   0.0312500
        k(   26) = (  -0.5303301   0.1767767   0.9522408), wk =   0.0312500
        k(   27) = (  -0.5303301   0.1767767   0.4081032), wk =   0.0312500
        k(   28) = (   0.0000000   0.7071068   0.2720688), wk =   0.0156250
        k(   29) = (   0.0000000   0.7071068  -0.2720688), wk =   0.0312500
        k(   30) = (   0.0000000   0.7071068   1.3603439), wk =   0.0156250

     Dense  grid:   362619 G-vectors     FFT dimensions: ( 120, 120,  60)

     Smooth grid:   109493 G-vectors     FFT dimensions: (  80,  80,  45)

     Estimated max dynamical RAM per process >     286.87 MB

     Estimated total dynamical RAM >       4.48 GB
     Generating pointlists ...
     new r_m :   0.1196 (alat units)  2.1549 (a.u.) for type    1
     new r_m :   0.1196 (alat units)  2.1549 (a.u.) for type    2
     new r_m :   0.1196 (alat units)  2.1549 (a.u.) for type    3

     Check: negative/imaginary core charge=   -0.000006    0.000000

     Initial potential from superposition of free atoms

     starting charge  295.99426, renormalised to  296.00000
     Number of +U iterations with fixed ns =  0
     Starting occupations:
 --- enter write_ns ---
 LDA+U parameters:
U(  1) =   3.1200   J(  1) =   0.7000   B(  1) =   0.0803
U(  2) =   3.1200   J(  2) =   0.7000   B(  2) =   0.0803
atom    1   Tr[ns(na)] (up, down, total) =   5.00000  0.00000  5.00000
   spin  1
    eigenvalues: 
  1.000  1.000  1.000  1.000  1.000
    eigenvectors:
  1.000  0.000  0.000  0.000  0.000
  0.000  1.000  0.000  0.000  0.000
  0.000  0.000  1.000  0.000  0.000
  0.000  0.000  0.000  1.000  0.000
  0.000  0.000  0.000  0.000  1.000
    occupations:
  1.000  0.000  0.000  0.000  0.000
  0.000  1.000  0.000  0.000  0.000
  0.000  0.000  1.000  0.000  0.000
  0.000  0.000  0.000  1.000  0.000
  0.000  0.000  0.000  0.000  1.000
   spin  2
    eigenvalues: 
  0.000  0.000  0.000  0.000  0.000
    eigenvectors:
  1.000  0.000  0.000  0.000  0.000
  0.000  1.000  0.000  0.000  0.000
  0.000  0.000  1.000  0.000  0.000
  0.000  0.000  0.000  1.000  0.000
  0.000  0.000  0.000  0.000  1.000
    occupations:
  0.000  0.000  0.000  0.000  0.000
  0.000  0.000  0.000  0.000  0.000
  0.000  0.000  0.000  0.000  0.000
  0.000  0.000  0.000  0.000  0.000
  0.000  0.000  0.000  0.000  0.000
atomic mag. moment =     5.000000
atom    2   Tr[ns(na)] (up, down, total) =   0.00000  5.00000  5.00000
   spin  1
    eigenvalues: 
  0.000  0.000  0.000  0.000  0.000
    eigenvectors:
  1.000  0.000  0.000  0.000  0.000
  0.000  1.000  0.000  0.000  0.000
  0.000  0.000  1.000  0.000  0.000
  0.000  0.000  0.000  1.000  0.000
  0.000  0.000  0.000  0.000  1.000
    occupations:
  0.000  0.000  0.000  0.000  0.000
  0.000  0.000  0.000  0.000  0.000
  0.000  0.000  0.000  0.000  0.000
  0.000  0.000  0.000  0.000  0.000
  0.000  0.000  0.000  0.000  0.000
   spin  2
    eigenvalues: 
  1.000  1.000  1.000  1.000  1.000
    eigenvectors:
  1.000  0.000  0.000  0.000  0.000
  0.000  1.000  0.000  0.000  0.000
  0.000  0.000  1.000  0.000  0.000
  0.000  0.000  0.000  1.000  0.000
  0.000  0.000  0.000  0.000  1.000
    occupations:
  1.000  0.000  0.000  0.000  0.000
  0.000  1.000  0.000  0.000  0.000
  0.000  0.000  1.000  0.000  0.000
  0.000  0.000  0.000  1.000  0.000
  0.000  0.000  0.000  0.000  1.000
atomic mag. moment =    -5.000000
atom    3   Tr[ns(na)] (up, down, total) =   0.00000  5.00000  5.00000
   spin  1
    eigenvalues: 
  0.000  0.000  0.000  0.000  0.000
    eigenvectors:
  1.000  0.000  0.000  0.000  0.000
  0.000  1.000  0.000  0.000  0.000
  0.000  0.000  1.000  0.000  0.000
  0.000  0.000  0.000  1.000  0.000
  0.000  0.000  0.000  0.000  1.000
    occupations:
  0.000  0.000  0.000  0.000  0.000
  0.000  0.000  0.000  0.000  0.000
  0.000  0.000  0.000  0.000  0.000
  0.000  0.000  0.000  0.000  0.000
  0.000  0.000  0.000  0.000  0.000
   spin  2
    eigenvalues: 
  1.000  1.000  1.000  1.000  1.000
    eigenvectors:
  1.000  0.000  0.000  0.000  0.000
  0.000  1.000  0.000  0.000  0.000
  0.000  0.000  1.000  0.000  0.000
  0.000  0.000  0.000  1.000  0.000
  0.000  0.000  0.000  0.000  1.000
    occupations:
  1.000  0.000  0.000  0.000  0.000
  0.000  1.000  0.000  0.000  0.000
  0.000  0.000  1.000  0.000  0.000
  0.000  0.000  0.000  1.000  0.000
  0.000  0.000  0.000  0.000  1.000
atomic mag. moment =    -5.000000
atom    4   Tr[ns(na)] (up, down, total) =   5.00000  0.00000  5.00000
   spin  1
    eigenvalues: 
  1.000  1.000  1.000  1.000  1.000
    eigenvectors:
  1.000  0.000  0.000  0.000  0.000
  0.000  1.000  0.000  0.000  0.000
  0.000  0.000  1.000  0.000  0.000
  0.000  0.000  0.000  1.000  0.000
  0.000  0.000  0.000  0.000  1.000
    occupations:
  1.000  0.000  0.000  0.000  0.000
  0.000  1.000  0.000  0.000  0.000
  0.000  0.000  1.000  0.000  0.000
  0.000  0.000  0.000  1.000  0.000
  0.000  0.000  0.000  0.000  1.000
   spin  2
    eigenvalues: 
  0.000  0.000  0.000  0.000  0.000
    eigenvectors:
  1.000  0.000  0.000  0.000  0.000
  0.000  1.000  0.000  0.000  0.000
  0.000  0.000  1.000  0.000  0.000
  0.000  0.000  0.000  1.000  0.000
  0.000  0.000  0.000  0.000  1.000
    occupations:
  0.000  0.000  0.000  0.000  0.000
  0.000  0.000  0.000  0.000  0.000
  0.000  0.000  0.000  0.000  0.000
  0.000  0.000  0.000  0.000  0.000
  0.000  0.000  0.000  0.000  0.000
atomic mag. moment =     5.000000
atom    5   Tr[ns(na)] (up, down, total) =   5.00000  0.00000  5.00000
   spin  1
    eigenvalues: 
  1.000  1.000  1.000  1.000  1.000
    eigenvectors:
  1.000  0.000  0.000  0.000  0.000
  0.000  1.000  0.000  0.000  0.000
  0.000  0.000  1.000  0.000  0.000
  0.000  0.000  0.000  1.000  0.000
  0.000  0.000  0.000  0.000  1.000
    occupations:
  1.000  0.000  0.000  0.000  0.000
  0.000  1.000  0.000  0.000  0.000
  0.000  0.000  1.000  0.000  0.000
  0.000  0.000  0.000  1.000  0.000
  0.000  0.000  0.000  0.000  1.000
   spin  2
    eigenvalues: 
  0.000  0.000  0.000  0.000  0.000
    eigenvectors:
  1.000  0.000  0.000  0.000  0.000
  0.000  1.000  0.000  0.000  0.000
  0.000  0.000  1.000  0.000  0.000
  0.000  0.000  0.000  1.000  0.000
  0.000  0.000  0.000  0.000  1.000
    occupations:
  0.000  0.000  0.000  0.000  0.000
  0.000  0.000  0.000  0.000  0.000
  0.000  0.000  0.000  0.000  0.000
  0.000  0.000  0.000  0.000  0.000
  0.000  0.000  0.000  0.000  0.000
atomic mag. moment =     5.000000
atom    6   Tr[ns(na)] (up, down, total) =   5.00000  0.00000  5.00000
   spin  1
    eigenvalues: 
  1.000  1.000  1.000  1.000  1.000
    eigenvectors:
  1.000  0.000  0.000  0.000  0.000
  0.000  1.000  0.000  0.000  0.000
  0.000  0.000  1.000  0.000  0.000
  0.000  0.000  0.000  1.000  0.000
  0.000  0.000  0.000  0.000  1.000
    occupations:
  1.000  0.000  0.000  0.000  0.000
  0.000  1.000  0.000  0.000  0.000
  0.000  0.000  1.000  0.000  0.000
  0.000  0.000  0.000  1.000  0.000
  0.000  0.000  0.000  0.000  1.000
   spin  2
    eigenvalues: 
  0.000  0.000  0.000  0.000  0.000
    eigenvectors:
  1.000  0.000  0.000  0.000  0.000
  0.000  1.000  0.000  0.000  0.000
  0.000  0.000  1.000  0.000  0.000
  0.000  0.000  0.000  1.000  0.000
  0.000  0.000  0.000  0.000  1.000
    occupations:
  0.000  0.000  0.000  0.000  0.000
  0.000  0.000  0.000  0.000  0.000
  0.000  0.000  0.000  0.000  0.000
  0.000  0.000  0.000  0.000  0.000
  0.000  0.000  0.000  0.000  0.000
atomic mag. moment =     5.000000
atom    7   Tr[ns(na)] (up, down, total) =   0.00000  5.00000  5.00000
   spin  1
    eigenvalues: 
  0.000  0.000  0.000  0.000  0.000
    eigenvectors:
  1.000  0.000  0.000  0.000  0.000
  0.000  1.000  0.000  0.000  0.000
  0.000  0.000  1.000  0.000  0.000
  0.000  0.000  0.000  1.000  0.000
  0.000  0.000  0.000  0.000  1.000
    occupations:
  0.000  0.000  0.000  0.000  0.000
  0.000  0.000  0.000  0.000  0.000
  0.000  0.000  0.000  0.000  0.000
  0.000  0.000  0.000  0.000  0.000
  0.000  0.000  0.000  0.000  0.000
   spin  2
    eigenvalues: 
  1.000  1.000  1.000  1.000  1.000
    eigenvectors:
  1.000  0.000  0.000  0.000  0.000
  0.000  1.000  0.000  0.000  0.000
  0.000  0.000  1.000  0.000  0.000
  0.000  0.000  0.000  1.000  0.000
  0.000  0.000  0.000  0.000  1.000
    occupations:
  1.000  0.000  0.000  0.000  0.000
  0.000  1.000  0.000  0.000  0.000
  0.000  0.000  1.000  0.000  0.000
  0.000  0.000  0.000  1.000  0.000
  0.000  0.000  0.000  0.000  1.000
atomic mag. moment =    -5.000000
atom    8   Tr[ns(na)] (up, down, total) =   5.00000  0.00000  5.00000
   spin  1
    eigenvalues: 
  1.000  1.000  1.000  1.000  1.000
    eigenvectors:
  1.000  0.000  0.000  0.000  0.000
  0.000  1.000  0.000  0.000  0.000
  0.000  0.000  1.000  0.000  0.000
  0.000  0.000  0.000  1.000  0.000
  0.000  0.000  0.000  0.000  1.000
    occupations:
  1.000  0.000  0.000  0.000  0.000
  0.000  1.000  0.000  0.000  0.000
  0.000  0.000  1.000  0.000  0.000
  0.000  0.000  0.000  1.000  0.000
  0.000  0.000  0.000  0.000  1.000
   spin  2
    eigenvalues: 
  0.000  0.000  0.000  0.000  0.000
    eigenvectors:
  1.000  0.000  0.000  0.000  0.000
  0.000  1.000  0.000  0.000  0.000
  0.000  0.000  1.000  0.000  0.000
  0.000  0.000  0.000  1.000  0.000
  0.000  0.000  0.000  0.000  1.000
    occupations:
  0.000  0.000  0.000  0.000  0.000
  0.000  0.000  0.000  0.000  0.000
  0.000  0.000  0.000  0.000  0.000
  0.000  0.000  0.000  0.000  0.000
  0.000  0.000  0.000  0.000  0.000
atomic mag. moment =     5.000000
N of occupied +U levels =   40.000000
 --- exit write_ns ---
 Atomic wfc used for LDA+U Projector are NOT orthogonalized
     Starting wfcs are  224 randomized atomic wfcs
     Checking if some PAW data can be deallocated... 

     total cpu time spent up to now is       25.4 secs

     Self-consistent Calculation

     iteration #  1     ecut=    45.00 Ry     beta= 0.10
     Davidson diagonalization with overlap
     ethr =  1.00E-02,  avg # of iterations =  4.7
 --- enter write_ns ---
 LDA+U parameters:
U(  1) =   3.1200   J(  1) =   0.7000   B(  1) =   0.0803
U(  2) =   3.1200   J(  2) =   0.7000   B(  2) =   0.0803
atom    1   Tr[ns(na)] (up, down, total) =   5.01475  0.27416  5.28891
   spin  1
    eigenvalues: 
  1.003  1.003  1.003  1.003  1.004
    eigenvectors:
  0.000  0.000  0.000  1.000  0.000
  0.001  0.499  0.500  0.000  0.000
  0.001  0.499  0.500  0.000  0.000
  0.000  0.000  0.000  0.000  1.000
  0.998  0.002  0.000  0.000  0.000
    occupations:
  1.003 -0.000 -0.000 -0.000 -0.000
 -0.000  1.003 -0.000  0.000  0.000
 -0.000 -0.000  1.003 -0.000  0.000
 -0.000  0.000 -0.000  1.004 -0.000
 -0.000  0.000  0.000 -0.000  1.003
   spin  2
    eigenvalues: 
  0.041  0.052  0.054  0.055  0.072
    eigenvectors:
  0.000  0.989  0.011  0.000  0.001
  0.000  0.005  0.495  0.500  0.000
  0.000  0.005  0.495  0.500  0.000
  1.000  0.000  0.000  0.000  0.000
  0.000  0.001  0.000  0.000  0.999
    occupations:
  0.052  0.000  0.000 -0.000 -0.000
  0.000  0.055 -0.000  0.000  0.000
  0.000 -0.000  0.055 -0.000  0.000
 -0.000  0.000 -0.000  0.041 -0.000
 -0.000  0.000  0.000 -0.000  0.072
atomic mag. moment =     4.740585
atom    2   Tr[ns(na)] (up, down, total) =   0.27504  5.01493  5.28996
   spin  1
    eigenvalues: 
  0.041  0.053  0.055  0.055  0.071
    eigenvectors:
  0.000  0.977  0.000  0.023  0.000
  0.000  0.012  0.500  0.485  0.004
  0.000  0.012  0.500  0.485  0.004
  1.000  0.000  0.000  0.000  0.000
  0.000  0.000  0.000  0.007  0.993
    occupations:
  0.053  0.000  0.000 -0.000 -0.000
  0.000  0.055  0.000 -0.000  0.001
  0.000  0.000  0.055  0.000  0.001
 -0.000 -0.000  0.000  0.041 -0.000
 -0.000  0.001  0.001 -0.000  0.071
   spin  2
    eigenvalues: 
  1.003  1.003  1.003  1.003  1.004
    eigenvectors:
  0.000  0.000  0.000  1.000  0.000
  0.000  0.500  0.500  0.000  0.000
  0.000  0.500  0.500  0.000  0.000
  0.000  0.000  0.000  0.000  1.000
  0.999  0.000  0.000  0.000  0.000
    occupations:
  1.003 -0.000 -0.000 -0.000 -0.000
 -0.000  1.003 -0.000 -0.000 -0.000
 -0.000 -0.000  1.003  0.000 -0.000
 -0.000 -0.000  0.000  1.004 -0.000
 -0.000 -0.000 -0.000 -0.000  1.003
atomic mag. moment =    -4.739891
atom    3   Tr[ns(na)] (up, down, total) =   0.27545  5.01482  5.29026
   spin  1
    eigenvalues: 
  0.042  0.053  0.054  0.055  0.071
    eigenvectors:
  0.009  0.928  0.016  0.046  0.001
  0.000  0.062  0.217  0.721  0.000
  0.000  0.000  0.767  0.232  0.001
  0.991  0.009  0.000  0.000  0.000
  0.000  0.001  0.000  0.001  0.998
    occupations:
  0.053  0.001 -0.000 -0.001 -0.001
  0.001  0.055 -0.000  0.000 -0.000
 -0.000 -0.000  0.055  0.000  0.000
 -0.001  0.000  0.000  0.042  0.000
 -0.001 -0.000  0.000  0.000  0.071
   spin  2
    eigenvalues: 
  1.003  1.003  1.003  1.003  1.003
    eigenvectors:
  0.000  0.000  0.001  0.983  0.016
  0.001  0.778  0.222  0.000  0.000
  0.000  0.222  0.777  0.001  0.000
  0.000  0.000  0.000  0.016  0.984
  0.999  0.000  0.000  0.000  0.000
    occupations:
  1.003  0.000  0.000  0.000 -0.000
  0.000  1.003  0.000  0.000 -0.000
  0.000  0.000  1.003  0.000 -0.000
  0.000  0.000  0.000  1.003 -0.000
 -0.000 -0.000 -0.000 -0.000  1.003
atomic mag. moment =    -4.739369
atom    4   Tr[ns(na)] (up, down, total) =   5.01476  0.27298  5.28775
   spin  1
    eigenvalues: 
  1.003  1.003  1.003  1.003  1.004
    eigenvectors:
  0.000  0.000  0.000  0.995  0.004
  0.001  0.725  0.274  0.000  0.000
  0.000  0.274  0.726  0.000  0.000
  0.000  0.000  0.000  0.004  0.996
  0.999  0.001  0.000  0.000  0.000
    occupations:
  1.003  0.000 -0.000  0.000 -0.000
  0.000  1.003  0.000 -0.000 -0.000
 -0.000  0.000  1.003  0.000  0.000
  0.000 -0.000  0.000  1.004 -0.000
 -0.000 -0.000  0.000 -0.000  1.003
   spin  2
    eigenvalues: 
  0.040  0.050  0.054  0.056  0.073
    eigenvectors:
  0.011  0.968  0.007  0.013  0.002
  0.000  0.020  0.352  0.628  0.000
  0.000  0.000  0.641  0.359  0.001
  0.989  0.010  0.000  0.000  0.000
  0.000  0.001  0.000  0.001  0.998
    occupations:
  0.050  0.001 -0.000 -0.001 -0.001
  0.001  0.055 -0.001 -0.000 -0.000
 -0.000 -0.001  0.055  0.000  0.000
 -0.001 -0.000  0.000  0.041 -0.000
 -0.001 -0.000  0.000 -0.000  0.073
atomic mag. moment =     4.741780
atom    5   Tr[ns(na)] (up, down, total) =   5.01480  0.27671  5.29151
   spin  1
    eigenvalues: 
  1.003  1.003  1.003  1.003  1.004
    eigenvectors:
  0.000  0.000  0.000  1.000  0.000
  0.001  0.499  0.500  0.000  0.000
  0.001  0.499  0.500  0.000  0.000
  0.000  0.000  0.000  0.000  1.000
  0.998  0.002  0.000  0.000  0.000
    occupations:
  1.003  0.000  0.000 -0.000  0.000
  0.000  1.003 -0.000  0.000  0.000
  0.000 -0.000  1.003 -0.000  0.000
 -0.000  0.000 -0.000  1.004 -0.000
  0.000  0.000  0.000 -0.000  1.003
   spin  2
    eigenvalues: 
  0.041  0.053  0.054  0.056  0.072
    eigenvectors:
  0.000  0.967  0.000  0.032  0.001
  0.000  0.016  0.500  0.481  0.002
  0.000  0.016  0.500  0.481  0.002
  1.000  0.000  0.000  0.000  0.000
  0.000  0.000  0.000  0.006  0.994
    occupations:
  0.053  0.000  0.000 -0.000  0.001
  0.000  0.055  0.001 -0.000  0.001
  0.000  0.001  0.055  0.000  0.001
 -0.000 -0.000  0.000  0.041 -0.000
  0.001  0.001  0.001 -0.000  0.072
atomic mag. moment =     4.738095
atom    6   Tr[ns(na)] (up, down, total) =   5.01502  0.27290  5.28792
   spin  1
    eigenvalues: 
  1.003  1.003  1.003  1.003  1.004
    eigenvectors:
  0.000  0.000  0.003  0.997  0.000
  0.000  0.499  0.498  0.001  0.001
  0.000  0.499  0.498  0.001  0.001
  0.000  0.001  0.000  0.000  0.999
  1.000  0.000  0.000  0.000  0.000
    occupations:
  1.003 -0.000 -0.000 -0.000 -0.000
 -0.000  1.003  0.000  0.000  0.000
 -0.000  0.000  1.003 -0.000  0.000
 -0.000  0.000 -0.000  1.004 -0.000
 -0.000  0.000  0.000 -0.000  1.003
   spin  2
    eigenvalues: 
  0.041  0.050  0.054  0.054  0.073
    eigenvectors:
  0.000  0.999  0.000  0.001  0.000
  0.000  0.000  0.500  0.500  0.000
  0.000  0.000  0.500  0.500  0.000
  1.000  0.000  0.000  0.000  0.000
  0.000  0.000  0.000  0.000  1.000
    occupations:
  0.050  0.000  0.000 -0.000  0.000
  0.000  0.054  0.000 -0.000 -0.000
  0.000  0.000  0.054  0.000 -0.000
 -0.000 -0.000  0.000  0.041 -0.000
  0.000 -0.000 -0.000 -0.000  0.073
atomic mag. moment =     4.742119
atom    7   Tr[ns(na)] (up, down, total) =   0.27545  5.01482  5.29026
   spin  1
    eigenvalues: 
  0.042  0.053  0.054  0.055  0.071
    eigenvectors:
  0.009  0.928  0.016  0.046  0.001
  0.000  0.000  0.767  0.232  0.001
  0.000  0.062  0.217  0.721  0.000
  0.991  0.009  0.000  0.000  0.000
  0.000  0.001  0.000  0.001  0.998
    occupations:
  0.053 -0.000  0.001  0.001 -0.001
 -0.000  0.055 -0.000 -0.000  0.000
  0.001 -0.000  0.055 -0.000 -0.000
  0.001 -0.000 -0.000  0.042 -0.000
 -0.001  0.000 -0.000 -0.000  0.071
   spin  2
    eigenvalues: 
  1.003  1.003  1.003  1.003  1.003
    eigenvectors:
  0.000  0.000  0.001  0.983  0.016
  0.000  0.222  0.777  0.001  0.000
  0.001  0.778  0.222  0.000  0.000
  0.000  0.000  0.000  0.016  0.984
  0.999  0.000  0.000  0.000  0.000
    occupations:
  1.003  0.000  0.000 -0.000 -0.000
  0.000  1.003  0.000 -0.000 -0.000
  0.000  0.000  1.003 -0.000 -0.000
 -0.000 -0.000 -0.000  1.003  0.000
 -0.000 -0.000 -0.000  0.000  1.003
atomic mag. moment =    -4.739369
atom    8   Tr[ns(na)] (up, down, total) =   5.01476  0.27298  5.28775
   spin  1
    eigenvalues: 
  1.003  1.003  1.003  1.003  1.004
    eigenvectors:
  0.000  0.000  0.000  0.995  0.004
  0.000  0.274  0.726  0.000  0.000
  0.001  0.725  0.274  0.000  0.000
  0.000  0.000  0.000  0.004  0.996
  0.999  0.001  0.000  0.000  0.000
    occupations:
  1.003 -0.000  0.000 -0.000 -0.000
 -0.000  1.003  0.000 -0.000  0.000
  0.000  0.000  1.003  0.000 -0.000
 -0.000 -0.000  0.000  1.004  0.000
 -0.000  0.000 -0.000  0.000  1.003
   spin  2
    eigenvalues: 
  0.040  0.050  0.054  0.056  0.073
    eigenvectors:
  0.011  0.968  0.007  0.013  0.002
  0.000  0.000  0.641  0.359  0.001
  0.000  0.020  0.352  0.628  0.000
  0.989  0.010  0.000  0.000  0.000
  0.000  0.001  0.000  0.001  0.998
    occupations:
  0.050 -0.000  0.001  0.001 -0.001
 -0.000  0.055 -0.001 -0.000  0.000
  0.001 -0.001  0.055  0.000 -0.000
  0.001 -0.000  0.000  0.041  0.000
 -0.001  0.000 -0.000  0.000  0.073
atomic mag. moment =     4.741780
N of occupied +U levels =   42.314321
 --- exit write_ns ---

     total cpu time spent up to now is       98.6 secs

     total energy              =  -14679.19431492 Ry
     Harris-Foulkes estimate   =  -14669.82424988 Ry
     estimated scf accuracy    <      21.28291465 Ry

     total magnetization       =    10.50 Bohr mag/cell
     absolute magnetization    =    43.57 Bohr mag/cell

     iteration #  2     ecut=    45.00 Ry     beta= 0.10
     Davidson diagonalization with overlap
     ethr =  7.19E-03,  avg # of iterations =  1.0

     total cpu time spent up to now is      136.8 secs

     total energy              =  -14692.14220747 Ry
     Harris-Foulkes estimate   =  -14679.29838107 Ry
     estimated scf accuracy    <      17.16548349 Ry

     total magnetization       =    10.35 Bohr mag/cell
     absolute magnetization    =    43.13 Bohr mag/cell

     iteration #  3     ecut=    45.00 Ry     beta= 0.10
     Davidson diagonalization with overlap
     ethr =  5.80E-03,  avg # of iterations =  2.1

     total cpu time spent up to now is      182.9 secs

     total energy              =  -14693.79363288 Ry
     Harris-Foulkes estimate   =  -14693.74388375 Ry
     estimated scf accuracy    <       4.08298363 Ry

     total magnetization       =     9.38 Bohr mag/cell
     absolute magnetization    =    39.28 Bohr mag/cell

     iteration #  4     ecut=    45.00 Ry     beta= 0.10
     Davidson diagonalization with overlap
     ethr =  1.38E-03,  avg # of iterations =  5.5

     total cpu time spent up to now is      250.2 secs

     total energy              =  -14693.49869726 Ry
     Harris-Foulkes estimate   =  -14693.83535560 Ry
     estimated scf accuracy    <       4.29696646 Ry

     total magnetization       =     9.34 Bohr mag/cell
     absolute magnetization    =    39.07 Bohr mag/cell

     iteration #  5     ecut=    45.00 Ry     beta= 0.10
     Davidson diagonalization with overlap
     ethr =  1.38E-03,  avg # of iterations =  5.1

     total cpu time spent up to now is      318.7 secs

     total energy              =  -14693.81620021 Ry
     Harris-Foulkes estimate   =  -14693.79516992 Ry
     estimated scf accuracy    <       0.46042096 Ry

     total magnetization       =     9.07 Bohr mag/cell
     absolute magnetization    =    38.43 Bohr mag/cell

     iteration #  6     ecut=    45.00 Ry     beta= 0.10
     Davidson diagonalization with overlap
     ethr =  1.56E-04,  avg # of iterations =  4.0

     total cpu time spent up to now is      396.9 secs

     total energy              =  -14693.94639969 Ry
     Harris-Foulkes estimate   =  -14693.93935492 Ry
     estimated scf accuracy    <       0.30869807 Ry

     total magnetization       =     8.51 Bohr mag/cell
     absolute magnetization    =    37.11 Bohr mag/cell

     iteration #  7     ecut=    45.00 Ry     beta= 0.10
     Davidson diagonalization with overlap
     ethr =  1.04E-04,  avg # of iterations =  1.0

     total cpu time spent up to now is      435.2 secs

     total energy              =  -14693.91931048 Ry
     Harris-Foulkes estimate   =  -14693.94824564 Ry
     estimated scf accuracy    <       0.42164024 Ry

     total magnetization       =     8.46 Bohr mag/cell
     absolute magnetization    =    37.12 Bohr mag/cell

     iteration #  8     ecut=    45.00 Ry     beta= 0.10
     Davidson diagonalization with overlap
     ethr =  1.04E-04,  avg # of iterations =  1.0

     total cpu time spent up to now is      473.5 secs

     total energy              =  -14693.93312490 Ry
     Harris-Foulkes estimate   =  -14693.93021151 Ry
     estimated scf accuracy    <       0.13693615 Ry

     total magnetization       =     8.58 Bohr mag/cell
     absolute magnetization    =    37.10 Bohr mag/cell

     iteration #  9     ecut=    45.00 Ry     beta= 0.10
     Davidson diagonalization with overlap
     ethr =  4.63E-05,  avg # of iterations =  1.1

     total cpu time spent up to now is      512.4 secs

     total energy              =  -14693.92780199 Ry
     Harris-Foulkes estimate   =  -14693.93673045 Ry
     estimated scf accuracy    <       0.06716619 Ry

     total magnetization       =     8.54 Bohr mag/cell
     absolute magnetization    =    36.98 Bohr mag/cell

     iteration # 10     ecut=    45.00 Ry     beta= 0.10
     Davidson diagonalization with overlap
     ethr =  2.27E-05,  avg # of iterations =  3.1

     total cpu time spent up to now is      566.8 secs

     total energy              =  -14693.93745278 Ry
     Harris-Foulkes estimate   =  -14693.93584524 Ry
     estimated scf accuracy    <       0.00453963 Ry

     total magnetization       =     8.54 Bohr mag/cell
     absolute magnetization    =    36.96 Bohr mag/cell

     iteration # 11     ecut=    45.00 Ry     beta= 0.10
     Davidson diagonalization with overlap
     c_bands:  1 eigenvalues not converged
     ethr =  1.53E-06,  avg # of iterations =  5.4

     total cpu time spent up to now is      634.5 secs

     total energy              =  -14693.93840028 Ry
     Harris-Foulkes estimate   =  -14693.93778781 Ry
     estimated scf accuracy    <       0.00442356 Ry

     total magnetization       =     8.52 Bohr mag/cell
     absolute magnetization    =    36.87 Bohr mag/cell

     iteration # 12     ecut=    45.00 Ry     beta= 0.10
     Davidson diagonalization with overlap
     ethr =  1.49E-06,  avg # of iterations =  2.4

     total cpu time spent up to now is      689.1 secs

     total energy              =  -14693.93879631 Ry
     Harris-Foulkes estimate   =  -14693.93944514 Ry
     estimated scf accuracy    <       0.00157611 Ry

     total magnetization       =     8.50 Bohr mag/cell
     absolute magnetization    =    36.80 Bohr mag/cell

     iteration # 13     ecut=    45.00 Ry     beta= 0.10
     Davidson diagonalization with overlap
     ethr =  5.32E-07,  avg # of iterations =  2.1

     total cpu time spent up to now is      746.0 secs

     total energy              =  -14693.93966943 Ry
     Harris-Foulkes estimate   =  -14693.93940841 Ry
     estimated scf accuracy    <       0.00203810 Ry

     total magnetization       =     8.49 Bohr mag/cell
     absolute magnetization    =    36.83 Bohr mag/cell

     iteration # 14     ecut=    45.00 Ry     beta= 0.10
     Davidson diagonalization with overlap
     ethr =  5.32E-07,  avg # of iterations =  2.0

     total cpu time spent up to now is      794.9 secs

     total energy              =  -14693.94001813 Ry
     Harris-Foulkes estimate   =  -14693.93996781 Ry
     estimated scf accuracy    <       0.00012939 Ry

     total magnetization       =     8.47 Bohr mag/cell
     absolute magnetization    =    36.78 Bohr mag/cell

     iteration # 15     ecut=    45.00 Ry     beta= 0.10
     Davidson diagonalization with overlap
     ethr =  4.37E-08,  avg # of iterations =  2.7

     total cpu time spent up to now is      843.3 secs

     total energy              =  -14693.94004943 Ry
     Harris-Foulkes estimate   =  -14693.94002754 Ry
     estimated scf accuracy    <       0.00006563 Ry

     total magnetization       =     8.46 Bohr mag/cell
     absolute magnetization    =    36.77 Bohr mag/cell

     iteration # 16     ecut=    45.00 Ry     beta= 0.10
     Davidson diagonalization with overlap
     ethr =  2.22E-08,  avg # of iterations =  2.6

     total cpu time spent up to now is      896.1 secs

     total energy              =  -14693.94007027 Ry
     Harris-Foulkes estimate   =  -14693.94005967 Ry
     estimated scf accuracy    <       0.00001297 Ry

     total magnetization       =     8.46 Bohr mag/cell
     absolute magnetization    =    36.78 Bohr mag/cell

     iteration # 17     ecut=    45.00 Ry     beta= 0.10
     Davidson diagonalization with overlap
     ethr =  4.38E-09,  avg # of iterations =  2.6

     total cpu time spent up to now is      943.5 secs

     total energy              =  -14693.94007877 Ry
     Harris-Foulkes estimate   =  -14693.94007087 Ry
     estimated scf accuracy    <       0.00000842 Ry

     total magnetization       =     8.46 Bohr mag/cell
     absolute magnetization    =    36.77 Bohr mag/cell

     iteration # 18     ecut=    45.00 Ry     beta= 0.10
     Davidson diagonalization with overlap
     ethr =  2.85E-09,  avg # of iterations =  2.1

     total cpu time spent up to now is      987.4 secs

     total energy              =  -14693.94008548 Ry
     Harris-Foulkes estimate   =  -14693.94007999 Ry
     estimated scf accuracy    <       0.00000464 Ry

     total magnetization       =     8.46 Bohr mag/cell
     absolute magnetization    =    36.77 Bohr mag/cell

     iteration # 19     ecut=    45.00 Ry     beta= 0.10
     Davidson diagonalization with overlap
     ethr =  1.57E-09,  avg # of iterations =  2.7

     total cpu time spent up to now is     1035.4 secs

     total energy              =  -14693.94008856 Ry
     Harris-Foulkes estimate   =  -14693.94008479 Ry
     estimated scf accuracy    <       0.00000198 Ry

     total magnetization       =     8.46 Bohr mag/cell
     absolute magnetization    =    36.77 Bohr mag/cell

     iteration # 20     ecut=    45.00 Ry     beta= 0.10
     Davidson diagonalization with overlap
     ethr =  6.70E-10,  avg # of iterations =  2.3
 
     Magnetic moment per site:
     atom:    1    charge:   13.5443    magn:    4.2034    constr:    0.0000
     atom:    2    charge:   13.5368    magn:   -4.2448    constr:    0.0000
     atom:    3    charge:   13.5381    magn:   -4.2399    constr:    0.0000
     atom:    4    charge:   13.5449    magn:    4.1879    constr:    0.0000
     atom:    5    charge:   13.5410    magn:    4.2299    constr:    0.0000
     atom:    6    charge:   13.5425    magn:    4.2051    constr:    0.0000
     atom:    7    charge:   13.5381    magn:   -4.2399    constr:    0.0000
     atom:    8    charge:   13.5449    magn:    4.1879    constr:    0.0000
     atom:    9    charge:    9.0907    magn:   -0.0010    constr:    0.0000
     atom:   10    charge:    9.0892    magn:    0.0145    constr:    0.0000
     atom:   11    charge:    9.0915    magn:   -0.0072    constr:    0.0000
     atom:   12    charge:    9.0921    magn:    0.0493    constr:    0.0000
     atom:   13    charge:    9.0908    magn:   -0.0178    constr:    0.0000
     atom:   14    charge:    9.0899    magn:    0.0174    constr:    0.0000
     atom:   15    charge:    9.0906    magn:    0.0219    constr:    0.0000
     atom:   16    charge:    9.0901    magn:   -0.0274    constr:    0.0000
     atom:   17    charge:    9.0899    magn:    0.0174    constr:    0.0000
     atom:   18    charge:    9.0908    magn:   -0.0178    constr:    0.0000
     atom:   19    charge:    9.0915    magn:   -0.0072    constr:    0.0000
     atom:   20    charge:    9.0921    magn:    0.0493    constr:    0.0000
     atom:   21    charge:    9.0907    magn:   -0.0010    constr:    0.0000
     atom:   22    charge:    9.0892    magn:    0.0145    constr:    0.0000
     atom:   23    charge:    9.0901    magn:   -0.0274    constr:    0.0000
     atom:   24    charge:    9.0906    magn:    0.0219    constr:    0.0000

     total cpu time spent up to now is     1081.3 secs

     End of self-consistent calculation
 --- enter write_ns ---
 LDA+U parameters:
U(  1) =   3.1200   J(  1) =   0.7000   B(  1) =   0.0803
U(  2) =   3.1200   J(  2) =   0.7000   B(  2) =   0.0803
atom    1   Tr[ns(na)] (up, down, total) =   4.96593  0.76409  5.73002
   spin  1
    eigenvalues: 
  0.984  0.991  0.993  0.997  1.001
    eigenvectors:
  0.004  0.000  0.022  0.974  0.000
  0.001  0.500  0.487  0.012  0.000
  0.001  0.500  0.487  0.012  0.000
  0.000  0.000  0.000  0.000  1.000
  0.994  0.000  0.003  0.003  0.000
    occupations:
  0.997  0.000  0.000 -0.000  0.001
  0.000  0.992  0.001 -0.000 -0.000
  0.000  0.001  0.992  0.000 -0.000
 -0.000 -0.000  0.000  1.001 -0.000
  0.001 -0.000 -0.000 -0.000  0.984
   spin  2
    eigenvalues: 
  0.069  0.142  0.144  0.153  0.256
    eigenvectors:
  0.000  0.000  0.946  0.022  0.032
  0.001  0.499  0.010  0.488  0.003
  0.001  0.499  0.010  0.488  0.003
  0.998  0.002  0.000  0.000  0.000
  0.000  0.000  0.035  0.002  0.962
    occupations:
  0.148 -0.000 -0.000 -0.000 -0.020
 -0.000  0.148  0.006 -0.002  0.006
 -0.000  0.006  0.148  0.002  0.006
 -0.000 -0.002  0.002  0.069 -0.000
 -0.020  0.006  0.006 -0.000  0.252
atomic mag. moment =     4.201834
atom    2   Tr[ns(na)] (up, down, total) =   0.73143  4.96935  5.70078
   spin  1
    eigenvalues: 
  0.070  0.126  0.141  0.155  0.240
    eigenvectors:
  0.000  0.990  0.000  0.009  0.001
  0.000  0.004  0.500  0.478  0.018
  0.000  0.004  0.500  0.478  0.018
  0.999  0.000  0.001  0.000  0.000
  0.000  0.002  0.000  0.035  0.963
    occupations:
  0.126 -0.002 -0.002 -0.000  0.003
 -0.002  0.149  0.008 -0.002  0.011
 -0.002  0.008  0.149  0.002  0.011
 -0.000 -0.002  0.002  0.070 -0.000
  0.003  0.011  0.011 -0.000  0.237
   spin  2
    eigenvalues: 
  0.985  0.992  0.993  0.998  1.002
    eigenvectors:
  0.001  0.000  0.049  0.950  0.000
  0.002  0.500  0.474  0.024  0.000
  0.002  0.500  0.474  0.024  0.000
  0.000  0.000  0.000  0.000  1.000
  0.996  0.000  0.002  0.001  0.000
    occupations:
  0.997 -0.001 -0.001 -0.000  0.000
 -0.001  0.993  0.001 -0.000 -0.000
 -0.001  0.001  0.993  0.000 -0.000
 -0.000 -0.000  0.000  1.002 -0.000
  0.000 -0.000 -0.000 -0.000  0.985
atomic mag. moment =    -4.237926
atom    3   Tr[ns(na)] (up, down, total) =   0.73526  4.96832  5.70358
   spin  1
    eigenvalues: 
  0.071  0.126  0.145  0.151  0.244
    eigenvectors:
  0.000  0.779  0.039  0.155  0.027
  0.000  0.087  0.877  0.019  0.017
  0.001  0.123  0.059  0.817  0.000
  0.999  0.000  0.000  0.000  0.000
  0.000  0.011  0.024  0.009  0.956
    occupations:
  0.133  0.007  0.008  0.000 -0.017
  0.007  0.145 -0.001 -0.001 -0.012
  0.008 -0.001  0.147 -0.002  0.000
  0.000 -0.001 -0.002  0.071 -0.001
 -0.017 -0.012  0.000 -0.001  0.239
   spin  2
    eigenvalues: 
  0.985  0.992  0.994  0.997  1.001
    eigenvectors:
  0.007  0.000  0.006  0.984  0.003
  0.000  0.581  0.416  0.003  0.000
  0.001  0.418  0.577  0.004  0.000
  0.000  0.000  0.000  0.003  0.997
  0.992  0.000  0.001  0.006  0.000
    occupations:
  0.997  0.000  0.000  0.000  0.001
  0.000  0.993  0.001 -0.000 -0.000
  0.000  0.001  0.993 -0.000 -0.000
  0.000 -0.000 -0.000  1.001  0.000
  0.001 -0.000 -0.000  0.000  0.985
atomic mag. moment =    -4.233060
atom    4   Tr[ns(na)] (up, down, total) =   4.96420  0.77454  5.73874
   spin  1
    eigenvalues: 
  0.983  0.990  0.993  0.997  1.001
    eigenvectors:
  0.001  0.002  0.016  0.975  0.006
  0.005  0.501  0.491  0.004  0.000
  0.000  0.493  0.491  0.015  0.000
  0.000  0.000  0.000  0.006  0.994
  0.994  0.003  0.002  0.001  0.000
    occupations:
  0.997  0.000  0.001  0.000  0.001
  0.000  0.992  0.002 -0.000 -0.001
  0.001  0.002  0.992 -0.000  0.000
  0.000 -0.000 -0.000  1.001 -0.000
  0.001 -0.001  0.000 -0.000  0.983
   spin  2
    eigenvalues: 
  0.067  0.138  0.145  0.159  0.265
    eigenvectors:
  0.000  0.018  0.852  0.126  0.003
  0.000  0.573  0.109  0.317  0.001
  0.000  0.407  0.037  0.556  0.000
  1.000  0.000  0.000  0.000  0.000
  0.000  0.002  0.002  0.001  0.995
    occupations:
  0.147  0.002  0.004  0.001 -0.007
  0.002  0.146  0.009 -0.001 -0.004
  0.004  0.009  0.150 -0.001  0.003
  0.001 -0.001 -0.001  0.068  0.000
 -0.007 -0.004  0.003  0.000  0.264
atomic mag. moment =     4.189661
atom    5   Tr[ns(na)] (up, down, total) =   4.96927  0.74122  5.71050
   spin  1
    eigenvalues: 
  0.984  0.992  0.994  0.997  1.002
    eigenvectors:
  0.000  0.083  0.000  0.917  0.000
  0.001  0.457  0.500  0.041  0.000
  0.001  0.457  0.500  0.041  0.000
  0.000  0.000  0.000  0.000  1.000
  0.997  0.002  0.000  0.000  0.000
    occupations:
  0.996 -0.001 -0.001 -0.000  0.000
 -0.001  0.993 -0.001 -0.000 -0.000
 -0.001 -0.001  0.993  0.000 -0.000
 -0.000 -0.000  0.000  1.002 -0.000
  0.000 -0.000 -0.000 -0.000  0.984
   spin  2
    eigenvalues: 
  0.069  0.123  0.141  0.152  0.256
    eigenvectors:
  0.000  0.986  0.000  0.013  0.000
  0.000  0.006  0.500  0.488  0.006
  0.000  0.006  0.500  0.488  0.006
  1.000  0.000  0.000  0.000  0.000
  0.000  0.001  0.000  0.011  0.988
    occupations:
  0.124 -0.002 -0.002 -0.000  0.003
 -0.002  0.147  0.006 -0.001  0.008
 -0.002  0.006  0.147  0.001  0.008
 -0.000 -0.001  0.001  0.069 -0.000
  0.003  0.008  0.008 -0.000  0.255
atomic mag. moment =     4.228052
atom    6   Tr[ns(na)] (up, down, total) =   4.96615  0.76179  5.72793
   spin  1
    eigenvalues: 
  0.983  0.992  0.993  0.997  1.001
    eigenvectors:
  0.001  0.000  0.000  0.999  0.000
  0.003  0.500  0.497  0.000  0.000
  0.003  0.500  0.497  0.000  0.000
  0.000  0.000  0.000  0.000  1.000
  0.993  0.000  0.006  0.001  0.000
    occupations:
  0.997  0.000  0.000 -0.000  0.000
  0.000  0.993  0.000  0.000 -0.001
  0.000  0.000  0.993 -0.000 -0.001
 -0.000  0.000 -0.000  1.001 -0.000
  0.000 -0.001 -0.001 -0.000  0.983
   spin  2
    eigenvalues: 
  0.070  0.141  0.145  0.155  0.251
    eigenvectors:
  0.000  0.000  0.630  0.355  0.014
  0.000  0.500  0.183  0.316  0.001
  0.000  0.500  0.183  0.316  0.001
  1.000  0.000  0.000  0.000  0.000
  0.000  0.000  0.004  0.013  0.983
    occupations:
  0.150  0.004  0.004 -0.000 -0.012
  0.004  0.146  0.005  0.000 -0.003
  0.004  0.005  0.146 -0.000 -0.003
 -0.000  0.000 -0.000  0.070 -0.000
 -0.012 -0.003 -0.003 -0.000  0.249
atomic mag. moment =     4.204362
atom    7   Tr[ns(na)] (up, down, total) =   0.73526  4.96832  5.70358
   spin  1
    eigenvalues: 
  0.071  0.126  0.145  0.151  0.244
    eigenvectors:
  0.000  0.779  0.039  0.155  0.027
  0.001  0.123  0.059  0.817  0.000
  0.000  0.087  0.877  0.019  0.017
  0.999  0.000  0.000  0.000  0.000
  0.000  0.011  0.024  0.009  0.956
    occupations:
  0.133  0.008  0.007 -0.000 -0.017
  0.008  0.147 -0.001  0.002  0.000
  0.007 -0.001  0.145  0.001 -0.012
 -0.000  0.002  0.001  0.071  0.001
 -0.017  0.000 -0.012  0.001  0.239
   spin  2
    eigenvalues: 
  0.985  0.992  0.994  0.997  1.001
    eigenvectors:
  0.007  0.000  0.006  0.984  0.003
  0.001  0.418  0.577  0.004  0.000
  0.000  0.581  0.416  0.003  0.000
  0.000  0.000  0.000  0.003  0.997
  0.992  0.000  0.001  0.006  0.000
    occupations:
  0.997  0.000  0.000 -0.000  0.001
  0.000  0.993  0.001  0.000 -0.000
  0.000  0.001  0.993  0.000 -0.000
 -0.000  0.000  0.000  1.001 -0.000
  0.001 -0.000 -0.000 -0.000  0.985
atomic mag. moment =    -4.233060
atom    8   Tr[ns(na)] (up, down, total) =   4.96420  0.77454  5.73874
   spin  1
    eigenvalues: 
  0.983  0.990  0.993  0.997  1.001
    eigenvectors:
  0.001  0.002  0.016  0.975  0.006
  0.000  0.493  0.491  0.015  0.000
  0.005  0.501  0.491  0.004  0.000
  0.000  0.000  0.000  0.006  0.994
  0.994  0.003  0.002  0.001  0.000
    occupations:
  0.997  0.001  0.000 -0.000  0.001
  0.001  0.992  0.002  0.000  0.000
  0.000  0.002  0.992  0.000 -0.001
 -0.000  0.000  0.000  1.001  0.000
  0.001  0.000 -0.001  0.000  0.983
   spin  2
    eigenvalues: 
  0.067  0.138  0.145  0.159  0.265
    eigenvectors:
  0.000  0.018  0.852  0.126  0.003
  0.000  0.407  0.037  0.556  0.000
  0.000  0.573  0.109  0.317  0.001
  1.000  0.000  0.000  0.000  0.000
  0.000  0.002  0.002  0.001  0.995
    occupations:
  0.147  0.004  0.002 -0.001 -0.007
  0.004  0.150  0.009  0.001  0.003
  0.002  0.009  0.146  0.001 -0.004
 -0.001  0.001  0.001  0.068 -0.000
 -0.007  0.003 -0.004 -0.000  0.264
atomic mag. moment =     4.189661
N of occupied +U levels =   45.753863
 --- exit write_ns ---

 ------ SPIN UP ------------


          k = 0.0000 0.0000 0.0000 ( 13629 PWs)   bands (ev):

   -66.4130 -66.3800 -66.3539 -66.3460 -66.3456 -61.8900 -61.8785 -61.8781
   -35.1967 -35.1370 -35.1345 -35.1339 -35.1327 -35.1197 -35.1166 -35.1152
   -35.1151 -35.0957 -35.0934 -35.0903 -35.0538 -35.0514 -35.0492 -30.7192
   -30.7171 -30.7143 -30.7077 -30.7074 -30.7055 -30.7055 -30.6994 -30.6991
     5.9475   7.5479   7.6239   8.0802   8.1432   8.3510   8.4375   8.4481
     8.7005   8.7041   9.0361   9.1602   9.3408   9.3896   9.4209   9.4301
     9.4638   9.4756   9.5610   9.5621   9.5932   9.5995   9.6063   9.6347
     9.6398   9.6918   9.7101   9.7416   9.8494   9.8556   9.9402   9.9414
     9.9494   9.9760  10.0222  10.0569  10.0736  10.0747  10.1505  10.1577
    10.2331  10.2589  10.2630  10.2671  10.3030  10.4153  10.4306  10.4392
    10.4527  10.4797  10.4959  10.5157  10.5165  10.6390  10.6476  10.6853
    10.7352  10.7752  10.8329  10.9382  11.0066  11.0413  11.0865  11.0935
    11.1143  11.1881  11.3241  11.3308  11.3400  11.4221  11.4953  11.6244
    11.6687  11.7896  11.8019  11.8158  11.8165  11.8277  11.8383  11.9142
    11.9399  11.9684  12.0262  12.0814  12.0934  12.1845  12.2600  12.2665
    12.2815  12.3500  12.3517  12.4038  12.4287  12.4607  12.4803  12.5069
    12.5161  12.5810  12.5884  12.6706  12.6866  12.6926  12.7006  12.7184
    12.7353  12.9427  12.9461  13.1241  13.1648  13.2180  13.2551  13.2645
    13.2659  13.3276  14.1194  15.0385  15.0427  15.0991  15.1537  15.5896
    15.9602  16.1306  16.8285  16.8543  16.9579  17.0140  17.0783  17.0938
    17.2157  17.4012  17.5759  17.5952  17.7059  17.8262  17.9334  18.1638
    18.2812  18.5417  19.1085  19.1276  19.3621  19.3734  19.4422  19.4496
    19.5589  19.5636

          k = 0.0000 0.0000-0.5441 ( 13704 PWs)   bands (ev):

   -66.4130 -66.3800 -66.3539 -66.3460 -66.3457 -61.8900 -61.8785 -61.8781
   -35.1967 -35.1370 -35.1345 -35.1339 -35.1327 -35.1197 -35.1167 -35.1152
   -35.1151 -35.0957 -35.0934 -35.0902 -35.0538 -35.0514 -35.0491 -30.7193
   -30.7171 -30.7142 -30.7078 -30.7074 -30.7056 -30.7055 -30.6994 -30.6991
     6.5380   7.5892   8.0875   8.1390   8.4268   8.4531   8.6921   8.7081
     8.7536   8.8581   8.9218   8.9333   8.9925   9.0243   9.0509   9.0812
     9.1269   9.1348   9.1997   9.4137   9.5530   9.6115   9.6199   9.6457
     9.6469   9.6530   9.6882   9.7240   9.7249   9.7589   9.8119   9.8427
     9.8610   9.8897   9.9370   9.9791   9.9821  10.0094  10.0487  10.0891
    10.1342  10.2521  10.2738  10.3199  10.3623  10.3899  10.3942  10.4807
    10.5009  10.5746  10.5813  10.5977  10.6352  10.6529  10.6841  10.7518
    10.8301  10.9131  10.9269  11.0424  11.0526  11.1798  11.2112  11.2665
    11.4769  11.5047  11.5138  11.5700  11.6019  11.6137  11.7094  11.7160
    11.7811  11.7856  11.8432  11.8826  11.8930  11.9190  11.9213  11.9394
    11.9599  11.9977  12.0217  12.0451  12.0692  12.0945  12.1071  12.1670
    12.2173  12.2392  12.2572  12.2650  12.3039  12.3520  12.4608  12.4831
    12.5829  12.5875  12.6054  12.6507  12.6721  12.7223  12.7878  12.8317
    12.8535  12.8697  12.8887  12.9594  13.0732  13.0796  13.2458  13.5021
    13.6072  14.0289  14.0618  14.1079  14.1330  14.2754  14.7928  15.1834
    15.6060  15.9236  16.0064  16.6229  16.9584  17.0337  17.1093  17.1620
    17.2782  17.3390  17.3601  17.4814  17.5594  17.6642  17.6895  17.8235
    17.9019  18.2622  18.3426  18.6201  19.0802  19.1805  19.2394  19.3193
    19.3751  19.5263

          k = 0.0000 0.0000 1.0883 ( 13706 PWs)   bands (ev):

   -66.4130 -66.3800 -66.3540 -66.3460 -66.3457 -61.8900 -61.8785 -61.8781
   -35.1967 -35.1370 -35.1346 -35.1339 -35.1327 -35.1197 -35.1167 -35.1153
   -35.1151 -35.0957 -35.0934 -35.0902 -35.0538 -35.0514 -35.0491 -30.7194
   -30.7171 -30.7142 -30.7078 -30.7074 -30.7057 -30.7055 -30.6994 -30.6991
     7.7862   8.0702   8.1423   8.3209   8.4186   8.4262   8.4859   8.6119
     8.7018   8.7044   8.7093   8.8280   8.9031   9.0219   9.0419   9.1239
     9.1356   9.1695   9.2773   9.4236   9.4310   9.4632   9.4713   9.5675
     9.6019   9.6119   9.6658   9.6926   9.7589   9.7646   9.8135   9.8520
     9.9072   9.9206   9.9421   9.9486   9.9858  10.0077  10.0335  10.0696
    10.1074  10.1393  10.2092  10.2245  10.2280  10.2595  10.2646  10.2980
    10.3680  10.3745  10.3766  10.4314  10.4708  10.5140  10.5191  10.6024
    10.6903  10.7316  10.9183  10.9621  11.0760  11.0765  11.1700  11.2315
    11.2517  11.4321  11.4487  11.4771  11.5563  11.5715  11.7476  11.7556
    11.7891  11.8159  11.8187  11.9273  11.9486  11.9696  11.9770  12.0625
    12.1211  12.1422  12.1447  12.2632  12.2982  12.3449  12.3508  12.3732
    12.4085  12.4598  12.4716  12.4837  12.5106  12.5322  12.5890  12.6047
    12.6891  12.6898  12.7151  12.7158  12.7476  12.7591  12.8765  13.0389
    13.1051  13.1215  13.1427  13.2039  13.2355  13.2638  13.2661  13.2752
    13.3781  13.4288  13.5245  13.6363  13.6920  14.1245  15.0383  15.0871
    15.1532  15.2730  15.7606  16.5410  16.8994  16.9524  16.9901  17.1202
    17.2361  17.3549  17.3844  17.4361  17.5229  17.5391  17.5511  17.8149
    17.8309  18.1286  18.1510  18.1625  18.4583  18.9605  19.1384  19.1923
    19.3453  19.3656

          k =-0.1768-0.1768-0.1360 ( 13673 PWs)   bands (ev):

   -66.4130 -66.3800 -66.3539 -66.3460 -66.3456 -61.8900 -61.8785 -61.8781
   -35.1967 -35.1370 -35.1345 -35.1339 -35.1327 -35.1197 -35.1166 -35.1152
   -35.1151 -35.0956 -35.0935 -35.0902 -35.0539 -35.0514 -35.0492 -30.7192
   -30.7171 -30.7143 -30.7078 -30.7074 -30.7055 -30.7055 -30.6994 -30.6992
     6.1095   7.2840   7.6907   7.7595   8.4196   8.4562   8.4862   8.6239
     8.6450   8.8048   9.1237   9.2042   9.2209   9.2926   9.3129   9.3361
     9.3503   9.4346   9.4661   9.4869   9.5239   9.5433   9.6014   9.6125
     9.6524   9.6636   9.6967   9.7328   9.7930   9.8876   9.9488   9.9668
    10.0055  10.0473  10.0499  10.0703  10.0778  10.1063  10.1834  10.2037
    10.2284  10.2612  10.2952  10.3384  10.3969  10.4047  10.4251  10.4961
    10.5076  10.5281  10.5563  10.5866  10.6174  10.6598  10.6891  10.7352
    10.7765  10.8321  10.9520  10.9733  10.9786  10.9910  11.0163  11.0455
    11.1336  11.1443  11.2662  11.2959  11.3604  11.4276  11.5330  11.5763
    11.6502  11.6910  11.7150  11.7278  11.7522  11.7871  11.8298  11.8675
    11.8931  11.9160  11.9475  11.9694  12.0022  12.0664  12.0910  12.1708
    12.2002  12.2309  12.2704  12.3031  12.3117  12.3421  12.3598  12.4223
    12.5098  12.5290  12.5970  12.6595  12.7070  12.7316  12.7915  12.8207
    12.8573  12.8729  12.9143  12.9538  13.0377  13.1007  13.1562  13.4388
    14.2181  14.2897  14.6996  14.9490  15.1857  15.3785  15.5591  15.7010
    15.8630  15.9320  16.6480  16.6849  16.7921  16.9632  17.0657  17.1650
    17.2200  17.3639  17.4363  17.5792  17.6921  17.7044  17.8508  17.9610
    18.2262  18.3573  18.6977  18.7156  18.8498  18.8914  18.9231  19.1148
    19.2244  19.8702

          k =-0.1768-0.1768-0.6802 ( 13666 PWs)   bands (ev):

   -66.4130 -66.3800 -66.3539 -66.3460 -66.3457 -61.8900 -61.8785 -61.8781
   -35.1967 -35.1370 -35.1345 -35.1339 -35.1327 -35.1197 -35.1167 -35.1152
   -35.1151 -35.0956 -35.0935 -35.0902 -35.0539 -35.0514 -35.0492 -30.7193
   -30.7171 -30.7142 -30.7078 -30.7074 -30.7057 -30.7055 -30.6994 -30.6992
     6.9524   7.0185   8.3036   8.3430   8.3820   8.4166   8.5890   8.7633
     8.8182   8.8419   8.8671   8.9205   8.9247   8.9905   9.0719   9.0910
     9.1449   9.3479   9.3552   9.4137   9.4539   9.5132   9.5312   9.5705
     9.6210   9.6473   9.6517   9.7304   9.7545   9.7617   9.7864   9.8109
     9.8195   9.8725   9.9074   9.9456   9.9633  10.0028  10.0365  10.0865
    10.2754  10.3208  10.3402  10.3702  10.4101  10.4244  10.4321  10.5036
    10.5252  10.5426  10.5775  10.6309  10.6691  10.6844  10.7708  10.8001
    10.8798  10.9127  10.9572  11.0145  11.0704  11.1200  11.1381  11.1717
    11.2463  11.3336  11.3647  11.4177  11.5139  11.5215  11.6311  11.6501
    11.6726  11.7556  11.7664  11.7746  11.8130  11.8526  11.8693  11.8736
    11.9211  11.9295  11.9722  12.0126  12.0375  12.0627  12.1145  12.1955
    12.2097  12.2359  12.2542  12.2965  12.3312  12.3743  12.4133  12.4283
    12.5097  12.5453  12.6081  12.6119  12.6794  12.7171  12.7928  12.8392
    12.8706  12.8883  12.9327  13.0354  13.0927  13.1218  13.2542  13.7997
    13.9032  14.1291  14.5080  14.7093  14.7932  14.8752  14.9848  15.4167
    15.5339  16.0248  16.3165  16.3821  16.4956  16.5076  16.5694  17.1098
    17.1566  17.2689  17.3819  17.4345  17.5153  17.6143  17.6847  17.7874
    17.9560  18.0366  18.1821  18.3230  18.4255  18.6188  18.9938  19.1654
    20.1200  20.5026

          k =-0.1768-0.1768 0.9522 ( 13713 PWs)   bands (ev):

   -66.4130 -66.3800 -66.3540 -66.3460 -66.3457 -61.8900 -61.8785 -61.8781
   -35.1967 -35.1370 -35.1346 -35.1339 -35.1327 -35.1197 -35.1167 -35.1153
   -35.1151 -35.0956 -35.0935 -35.0902 -35.0538 -35.0514 -35.0492 -30.7194
   -30.7171 -30.7142 -30.7078 -30.7074 -30.7057 -30.7055 -30.6993 -30.6991
     7.6537   7.7734   8.3061   8.4035   8.4843   8.4904   8.6157   8.6298
     8.6414   8.6853   8.7390   8.7909   8.8178   8.9049   8.9857   9.0988
     9.1159   9.1913   9.2635   9.3247   9.3302   9.3572   9.4343   9.4451
     9.5330   9.5673   9.6368   9.6783   9.6931   9.7377   9.7767   9.8243
     9.8347   9.8663   9.8775   9.9011   9.9704  10.0230  10.0498  10.0773
    10.0980  10.1581  10.2359  10.3061  10.3274  10.3635  10.4028  10.4160
    10.4904  10.5369  10.5531  10.5970  10.6566  10.7155  10.7379  10.7923
    10.8483  10.9449  10.9669  11.0527  11.0887  11.1174  11.1571  11.2192
    11.3859  11.4190  11.4775  11.5084  11.5834  11.6485  11.7513  11.8497
    11.8628  11.8786  11.9179  11.9559  11.9622  11.9757  12.0027  12.0678
    12.0952  12.1220  12.1379  12.2207  12.2463  12.2614  12.2712  12.2883
    12.3074  12.3558  12.4006  12.4196  12.4605  12.4624  12.5408  12.5607
    12.6023  12.6550  12.6827  12.7557  12.7832  12.8598  12.8968  12.9354
    12.9560  12.9750  12.9997  13.0462  13.0631  13.0961  13.1962  13.2605
    13.3220  13.5790  13.7226  13.7946  13.8463  13.8781  14.1513  14.7705
    14.8618  15.6925  16.0699  16.0800  16.4071  16.5884  16.9476  17.1270
    17.2327  17.3426  17.4125  17.4313  17.5050  17.5538  17.5702  17.7020
    17.8503  18.0679  18.2604  18.5667  18.8642  18.9535  19.0379  19.1582
    19.5473  19.6870

          k =-0.1768-0.1768 0.4081 ( 13683 PWs)   bands (ev):

   -66.4130 -66.3800 -66.3539 -66.3460 -66.3457 -61.8900 -61.8785 -61.8781
   -35.1967 -35.1370 -35.1345 -35.1339 -35.1327 -35.1197 -35.1167 -35.1152
   -35.1151 -35.0956 -35.0935 -35.0902 -35.0539 -35.0514 -35.0492 -30.7193
   -30.7171 -30.7142 -30.7078 -30.7074 -30.7056 -30.7055 -30.6994 -30.6991
     6.4046   7.9504   8.0104   8.0968   8.3026   8.4754   8.4922   8.6570
     8.6834   8.6932   8.8729   8.9833   9.0225   9.0617   9.0768   9.1443
     9.1821   9.2389   9.2629   9.3140   9.4226   9.5339   9.5432   9.5756
     9.6280   9.6770   9.7014   9.7286   9.7627   9.7731   9.7914   9.8517
     9.8531   9.8968   9.9143   9.9642  10.0316  10.0533  10.1073  10.1715
    10.1803  10.2225  10.2604  10.2925  10.3154  10.3542  10.4360  10.4557
    10.5015  10.5651  10.5851  10.7259  10.7373  10.8226  10.8418  10.8820
    10.9082  10.9588  11.0341  11.0917  11.2028  11.2778  11.2896  11.3284
    11.3885  11.4674  11.4792  11.5065  11.5233  11.6015  11.6727  11.7673
    11.7793  11.8542  11.8785  11.9146  11.9327  11.9586  11.9866  12.0026
    12.0366  12.0732  12.1019  12.1396  12.1606  12.1836  12.2179  12.2215
    12.2428  12.2729  12.2929  12.3287  12.3343  12.3560  12.4046  12.4473
    12.5235  12.5509  12.5636  12.5912  12.6107  12.6556  12.7087  12.7658
    12.7934  12.8563  12.8977  12.9224  12.9410  12.9724  13.0978  13.3054
    13.3278  13.4074  13.5256  13.8990  14.0068  14.6593  14.8884  15.3323
    15.5586  15.9644  16.1621  16.5068  16.7470  16.9666  17.0419  17.1740
    17.2410  17.3139  17.4578  17.5241  17.5703  17.6206  17.8221  17.8945
    18.0176  18.3152  18.4770  18.5390  18.8670  19.0438  19.1141  19.3435
    19.8570  20.0946

          k = 0.3536 0.3536 0.2721 ( 13708 PWs)   bands (ev):

   -66.4130 -66.3800 -66.3539 -66.3460 -66.3457 -61.8900 -61.8785 -61.8781
   -35.1967 -35.1370 -35.1345 -35.1339 -35.1327 -35.1197 -35.1166 -35.1152
   -35.1151 -35.0956 -35.0936 -35.0902 -35.0539 -35.0514 -35.0492 -30.7192
   -30.7171 -30.7143 -30.7078 -30.7074 -30.7056 -30.7055 -30.6993 -30.6992
     6.5524   6.6005   8.0175   8.0963   8.1156   8.1201   8.6875   8.7501
     8.8406   8.8411   8.9536   8.9594   9.2944   9.3115   9.3163   9.3331
     9.3843   9.4020   9.4537   9.4767   9.5180   9.5289   9.5599   9.5678
     9.5887   9.5971   9.6796   9.7167   9.7297   9.8460   9.8742   9.8827
     9.9728  10.0506  10.0830  10.1030  10.1318  10.1533  10.2652  10.3089
    10.3155  10.3259  10.3265  10.3469  10.3912  10.4101  10.4650  10.4656
    10.5408  10.5813  10.6003  10.6299  10.6748  10.6801  10.6822  10.8706
    10.8862  10.9119  10.9382  10.9692  11.0202  11.0435  11.0660  11.0705
    11.1877  11.2579  11.3232  11.3368  11.3431  11.3735  11.4082  11.4397
    11.4538  11.5516  11.5672  11.5847  11.6473  11.7160  11.7357  11.7585
    11.8418  11.8485  11.8948  11.9369  11.9952  12.0039  12.0281  12.1134
    12.1404  12.1644  12.1937  12.2690  12.2776  12.3245  12.3677  12.4186
    12.4311  12.5371  12.6122  12.6252  12.6315  12.6386  12.7344  12.7506
    12.8849  12.9161  12.9667  13.0253  13.0322  13.0871  13.1167  14.1069
    14.5601  14.9976  15.1176  15.4112  15.5523  15.6110  15.6206  15.8404
    15.9977  16.0034  16.1249  16.1756  16.6225  16.7251  17.0104  17.1187
    17.1465  17.2752  17.4937  17.5433  17.6174  17.6773  17.7034  17.7820
    17.9798  18.0332  18.1910  18.2776  18.3672  18.4016  18.8075  19.0744
    19.8689  19.8934

          k = 0.3536 0.3536-0.2721 ( 13700 PWs)   bands (ev):

   -66.4130 -66.3800 -66.3539 -66.3460 -66.3457 -61.8900 -61.8785 -61.8781
   -35.1967 -35.1370 -35.1345 -35.1339 -35.1327 -35.1197 -35.1167 -35.1152
   -35.1151 -35.0956 -35.0936 -35.0902 -35.0539 -35.0513 -35.0492 -30.7193
   -30.7171 -30.7142 -30.7078 -30.7074 -30.7056 -30.7055 -30.6993 -30.6992
     6.5762   7.5937   8.0602   8.1128   8.4012   8.5720   8.6142   8.6482
     8.6925   8.7234   8.8788   8.8924   8.9328   9.0264   9.0394   9.2529
     9.2931   9.3086   9.3395   9.3944   9.4135   9.4567   9.4808   9.5270
     9.5489   9.5686   9.5790   9.7037   9.7280   9.7652   9.8037   9.8447
     9.8633   9.9090   9.9223   9.9726  10.0503  10.1006  10.1574  10.2041
    10.2730  10.2956  10.3206  10.3343  10.3761  10.4307  10.4504  10.5053
    10.5287  10.5837  10.6144  10.6613  10.7374  10.8145  10.8530  10.8629
    10.9327  10.9647  11.0160  11.0341  11.0921  11.0958  11.2134  11.3032
    11.3242  11.3740  11.3917  11.4370  11.4847  11.5157  11.5972  11.6875
    11.7200  11.7284  11.7633  11.8249  11.8627  11.8905  11.9140  11.9671
    11.9837  12.0190  12.0320  12.0667  12.0730  12.1091  12.1229  12.1517
    12.2060  12.2265  12.2713  12.2760  12.2901  12.3337  12.3622  12.3810
    12.4717  12.5094  12.6050  12.6513  12.6726  12.7015  12.7226  12.7763
    12.8226  12.9056  12.9208  12.9976  13.0792  13.1141  13.1383  13.3304
    13.4564  13.9388  13.9863  14.3986  14.9561  15.0496  15.3162  15.3342
    15.6145  15.8219  15.9691  16.2937  16.4559  16.7225  16.7471  17.1398
    17.2724  17.3432  17.3637  17.5047  17.5578  17.6283  17.7042  17.7574
    17.9371  18.0743  18.2598  18.2933  18.5372  18.9268  18.9380  19.7184
    19.9282  19.9919

          k = 0.3536 0.3536 1.3603 ( 13692 PWs)   bands (ev):

   -66.4130 -66.3800 -66.3539 -66.3460 -66.3457 -61.8900 -61.8785 -61.8782
   -35.1967 -35.1370 -35.1346 -35.1339 -35.1327 -35.1197 -35.1167 -35.1152
   -35.1152 -35.0955 -35.0936 -35.0901 -35.0539 -35.0513 -35.0492 -30.7194
   -30.7171 -30.7142 -30.7078 -30.7074 -30.7057 -30.7056 -30.6993 -30.6992
     7.5670   7.6213   8.3455   8.4528   8.5213   8.5842   8.6153   8.6157
     8.6387   8.6429   8.7284   8.7408   8.8846   8.9334   8.9558   8.9773
     9.0764   9.1359   9.2394   9.2590   9.2755   9.3173   9.3546   9.4293
     9.4502   9.4884   9.5169   9.6834   9.7304   9.7488   9.7681   9.8024
     9.8350   9.8367   9.8900   9.9058   9.9406   9.9686   9.9987  10.0102
    10.1678  10.2109  10.2524  10.3025  10.3788  10.4276  10.4499  10.5115
    10.5488  10.5825  10.6303  10.7550  10.8260  10.8636  10.8998  10.9736
    10.9956  11.0561  11.0839  11.1223  11.1780  11.3462  11.3942  11.4098
    11.5255  11.6434  11.7253  11.7304  11.7616  11.8151  11.8209  11.8623
    11.8700  11.8774  11.9699  11.9749  12.0044  12.0053  12.0228  12.0429
    12.0768  12.0884  12.0926  12.1024  12.1257  12.1492  12.1617  12.1767
    12.2380  12.2691  12.2715  12.2874  12.2903  12.3137  12.3448  12.3568
    12.4090  12.5593  12.6400  12.6960  12.7259  12.7550  12.7637  12.7867
    12.8165  12.8609  12.8903  12.9917  13.0579  13.1338  13.1472  13.2803
    13.4222  13.4293  13.4937  13.8596  13.8829  14.0816  14.1810  14.9603
    14.9761  15.0071  15.1136  15.9595  16.3952  16.6290  16.9179  17.0893
    17.2810  17.3695  17.4072  17.4252  17.4985  17.5888  17.6014  17.6843
    17.8900  17.9449  18.4471  18.6343  18.8156  19.0734  19.4885  19.9188
    19.9202  19.9444

          k = 0.1768-0.1768 0.0000 ( 13644 PWs)   bands (ev):

   -66.4130 -66.3800 -66.3539 -66.3460 -66.3456 -61.8900 -61.8785 -61.8781
   -35.1967 -35.1370 -35.1345 -35.1339 -35.1327 -35.1197 -35.1166 -35.1152
   -35.1151 -35.0957 -35.0934 -35.0903 -35.0538 -35.0514 -35.0492 -30.7192
   -30.7171 -30.7143 -30.7077 -30.7074 -30.7055 -30.7055 -30.6994 -30.6991
     6.0715   6.9790   8.0272   8.1490   8.1993   8.3753   8.4873   8.4972
     8.6030   8.6249   8.9555   9.0808   9.2241   9.3714   9.4161   9.4547
     9.4793   9.4879   9.5072   9.5642   9.5862   9.5993   9.6304   9.6391
     9.6643   9.6726   9.7604   9.7642   9.8064   9.8292   9.8558   9.8878
     9.9534   9.9713  10.0326  10.0568  10.0868  10.0987  10.1250  10.1929
    10.2286  10.2347  10.2461  10.2982  10.3297  10.4243  10.4394  10.5000
    10.5125  10.5465  10.5674  10.5752  10.6155  10.6240  10.6671  10.7409
    10.7960  10.8271  10.8714  11.0330  11.0596  11.0759  11.0929  11.1119
    11.1738  11.2872  11.3221  11.3506  11.3877  11.4269  11.4931  11.5498
    11.6512  11.6939  11.7078  11.7958  11.8022  11.8446  11.8644  11.9399
    11.9542  11.9638  11.9844  12.0710  12.1116  12.1867  12.1930  12.2429
    12.2598  12.2676  12.3044  12.3138  12.3689  12.3905  12.4293  12.4788
    12.5362  12.5454  12.6216  12.6477  12.7114  12.7200  12.7514  12.7688
    12.8005  12.8728  12.8766  12.8930  12.9391  13.1539  13.1613  13.1810
    13.3360  13.8584  13.9218  14.9452  15.0647  15.4229  15.4526  15.6345
    16.0615  16.1517  16.6038  16.7084  16.8899  16.9479  17.0591  17.0724
    17.2201  17.3613  17.5100  17.5312  17.6569  17.8255  18.0103  18.2071
    18.2187  18.2306  18.4002  18.7620  18.8474  19.2037  19.4262  19.6019
    19.6407  19.8579

          k = 0.1768-0.1768-0.5441 ( 13695 PWs)   bands (ev):

   -66.4130 -66.3800 -66.3539 -66.3460 -66.3457 -61.8900 -61.8785 -61.8781
   -35.1967 -35.1370 -35.1345 -35.1339 -35.1327 -35.1197 -35.1167 -35.1152
   -35.1151 -35.0957 -35.0934 -35.0902 -35.0538 -35.0514 -35.0491 -30.7193
   -30.7171 -30.7142 -30.7078 -30.7074 -30.7056 -30.7055 -30.6994 -30.6991
     6.6529   7.5091   7.6942   8.3095   8.4825   8.5507   8.6758   8.7592
     8.7846   8.7904   8.9272   8.9510   9.0116   9.0202   9.0631   9.1257
     9.1631   9.1850   9.2165   9.2986   9.4305   9.4828   9.5134   9.5260
     9.5419   9.5724   9.6582   9.6982   9.7204   9.7289   9.7561   9.7915
     9.8249   9.8799   9.9256  10.0035  10.0302  10.1230  10.1596  10.1850
    10.2380  10.2936  10.3206  10.3859  10.3891  10.4480  10.5240  10.5887
    10.6205  10.6423  10.6673  10.6875  10.7008  10.7298  10.8063  10.8496
    10.9117  10.9160  10.9820  11.0501  11.0737  11.1574  11.1876  11.3059
    11.3736  11.4297  11.4465  11.4938  11.5613  11.5810  11.5992  11.6346
    11.6719  11.7214  11.7692  11.8125  11.8635  11.8852  11.9222  11.9582
    11.9703  12.0086  12.0262  12.0430  12.0712  12.1017  12.1280  12.1645
    12.2183  12.2263  12.2651  12.2803  12.3101  12.3219  12.3507  12.4736
    12.5125  12.5414  12.5837  12.5972  12.6422  12.6677  12.7028  12.7784
    12.8192  12.8645  12.9654  13.0378  13.1307  13.2528  13.3091  13.3762
    13.5653  13.7035  13.7724  14.1510  14.6054  14.7551  15.0901  15.1477
    15.7332  15.7765  16.0612  16.2910  16.6958  16.7700  16.9919  17.1822
    17.3045  17.3243  17.4192  17.4888  17.5595  17.6358  17.6835  17.8833
    18.0730  18.1442  18.4518  18.5882  18.9071  18.9917  19.0326  19.2557
    19.7081  19.9693

          k = 0.1768-0.1768 1.0883 ( 13696 PWs)   bands (ev):

   -66.4130 -66.3800 -66.3540 -66.3460 -66.3457 -61.8900 -61.8785 -61.8781
   -35.1967 -35.1370 -35.1346 -35.1339 -35.1327 -35.1197 -35.1167 -35.1153
   -35.1151 -35.0957 -35.0934 -35.0902 -35.0538 -35.0514 -35.0491 -30.7194
   -30.7171 -30.7142 -30.7078 -30.7074 -30.7057 -30.7055 -30.6994 -30.6991
     7.8611   8.1407   8.1979   8.3912   8.4338   8.4441   8.5011   8.5225
     8.6018   8.6209   8.6404   8.7667   8.7674   8.8934   9.0123   9.0864
     9.1677   9.3462   9.4110   9.4417   9.4706   9.4812   9.4968   9.5260
     9.5690   9.5929   9.6297   9.6353   9.6482   9.7505   9.7830   9.8040
     9.8848   9.8894   9.9498   9.9686  10.0023  10.0114  10.0652  10.0792
    10.0907  10.1504  10.1926  10.2101  10.2240  10.2259  10.2517  10.3069
    10.3739  10.4644  10.4725  10.4951  10.5317  10.5734  10.6161  10.6861
    10.6936  10.7765  10.7918  11.0161  11.0269  11.2291  11.2610  11.2680
    11.3365  11.4390  11.4754  11.5623  11.6574  11.7006  11.7272  11.7812
    11.7975  11.8152  11.8164  11.8445  11.9354  11.9535  11.9619  12.0334
    12.0693  12.1044  12.1265  12.1647  12.2375  12.3018  12.3191  12.3322
    12.3551  12.3669  12.4036  12.4610  12.4698  12.4859  12.4978  12.5540
    12.5655  12.6622  12.7183  12.7207  12.7564  12.7656  12.8622  12.8657
    12.9098  12.9492  13.0050  13.0765  13.1167  13.1576  13.1694  13.2568
    13.3768  13.8079  13.8783  14.1557  14.1817  14.5521  14.9490  15.1565
    15.4511  15.4658  15.7479  16.1060  16.3519  16.6084  16.9437  17.0037
    17.1944  17.2879  17.3688  17.4168  17.4592  17.5103  17.5408  17.7677
    17.7875  17.9762  18.0157  18.1768  18.3206  18.3582  18.7561  18.9786
    19.0838  19.4968

          k = 0.0000-0.3536-0.1360 ( 13676 PWs)   bands (ev):

   -66.4130 -66.3800 -66.3539 -66.3460 -66.3456 -61.8900 -61.8785 -61.8781
   -35.1967 -35.1370 -35.1345 -35.1339 -35.1327 -35.1197 -35.1166 -35.1152
   -35.1151 -35.0956 -35.0935 -35.0902 -35.0539 -35.0514 -35.0492 -30.7192
   -30.7171 -30.7143 -30.7078 -30.7074 -30.7055 -30.7055 -30.6994 -30.6992
     6.2320   7.1254   7.3872   8.0760   8.1618   8.4831   8.6000   8.6477
     8.8017   8.8290   9.0671   9.1432   9.1818   9.2800   9.3173   9.3354
     9.3623   9.3950   9.4145   9.4443   9.4814   9.5132   9.5579   9.5890
     9.6426   9.6892   9.7532   9.7741   9.8077   9.8930   9.9299   9.9493
     9.9693  10.0177  10.0376  10.0513  10.0840  10.1600  10.1657  10.2013
    10.2693  10.2994  10.3271  10.3400  10.4009  10.4320  10.4687  10.4897
    10.5449  10.5960  10.6228  10.6590  10.6794  10.7191  10.7526  10.7887
    10.8207  10.8815  10.9090  10.9491  10.9805  11.0283  11.1005  11.1348
    11.1743  11.2275  11.2629  11.2906  11.3720  11.3846  11.5080  11.5596
    11.6061  11.6392  11.6787  11.7005  11.7274  11.7628  11.7940  11.8095
    11.8862  11.8971  11.9305  11.9690  12.0189  12.0613  12.1109  12.1376
    12.1655  12.2308  12.2655  12.2767  12.3004  12.3184  12.3476  12.3991
    12.4253  12.4865  12.5587  12.6095  12.6861  12.7353  12.7909  12.8248
    12.8567  12.8914  12.9100  13.0300  13.0651  13.1401  13.3804  13.4610
    13.9229  13.9374  14.6068  14.9519  15.3189  15.4502  15.7019  15.8474
    15.8839  16.0370  16.1787  16.6314  16.7793  16.9305  17.0837  17.1363
    17.2313  17.3548  17.4439  17.5779  17.6461  17.7108  17.8181  17.9542
    18.1291  18.3183  18.4393  18.4718  18.8193  18.9417  19.2435  19.4712
    19.5765  20.0042

          k = 0.0000-0.3536-0.6802 ( 13702 PWs)   bands (ev):

   -66.4130 -66.3800 -66.3539 -66.3460 -66.3457 -61.8900 -61.8785 -61.8781
   -35.1967 -35.1370 -35.1345 -35.1339 -35.1327 -35.1197 -35.1167 -35.1152
   -35.1151 -35.0956 -35.0935 -35.0902 -35.0539 -35.0514 -35.0492 -30.7193
   -30.7171 -30.7142 -30.7078 -30.7074 -30.7057 -30.7055 -30.6994 -30.6992
     7.0573   7.1293   7.8391   7.9007   8.5620   8.6421   8.7988   8.8245
     8.8528   8.8959   8.9040   8.9536   8.9812   9.0310   9.0887   9.1134
     9.1519   9.2210   9.2640   9.3246   9.3637   9.3990   9.4286   9.5002
     9.5183   9.5642   9.5960   9.6454   9.6665   9.7058   9.7604   9.8198
     9.8871   9.9243  10.0145  10.0347  10.0663  10.1416  10.1870  10.2501
    10.2790  10.3050  10.3245  10.3791  10.4036  10.4311  10.5003  10.5120
    10.5863  10.6081  10.6747  10.7031  10.7280  10.7879  10.8143  10.8600
    10.8832  10.9219  10.9557  11.0190  11.0521  11.1375  11.1659  11.1963
    11.2403  11.3379  11.3609  11.3861  11.4499  11.4858  11.5361  11.5532
    11.6268  11.6588  11.7344  11.7529  11.7636  11.7911  11.8573  11.8932
    11.9157  11.9401  11.9900  12.0374  12.0708  12.0940  12.1109  12.1819
    12.2082  12.2303  12.2642  12.2851  12.3212  12.3528  12.3836  12.3966
    12.4482  12.5081  12.5938  12.6187  12.6599  12.7132  12.7496  12.7938
    12.8696  12.9018  12.9852  13.0424  13.1632  13.2069  13.5284  13.7364
    13.8669  14.0630  14.2643  14.4937  14.6575  15.0334  15.1967  15.4673
    15.6444  15.7016  16.0372  16.2024  16.3597  16.6011  16.9448  17.1061
    17.2216  17.3557  17.4055  17.4483  17.5570  17.6458  17.6829  17.8262
    17.9243  18.0089  18.1386  18.3473  18.5450  19.0332  19.3332  19.4661
    19.8055  20.0470

          k = 0.0000-0.3536 0.9522 ( 13693 PWs)   bands (ev):

   -66.4130 -66.3800 -66.3540 -66.3460 -66.3457 -61.8900 -61.8785 -61.8781
   -35.1967 -35.1370 -35.1346 -35.1339 -35.1327 -35.1197 -35.1167 -35.1153
   -35.1151 -35.0956 -35.0935 -35.0902 -35.0538 -35.0514 -35.0492 -30.7194
   -30.7171 -30.7142 -30.7078 -30.7074 -30.7057 -30.7055 -30.6993 -30.6991
     7.7300   7.8395   8.3096   8.3156   8.3931   8.4792   8.5160   8.5774
     8.6361   8.7066   8.7756   8.8032   8.8427   8.9189   9.0073   9.1122
     9.1794   9.2351   9.2917   9.3127   9.3392   9.3587   9.3956   9.4478
     9.4907   9.5468   9.5643   9.6061   9.6674   9.6976   9.7343   9.7474
     9.7767   9.8454   9.9057   9.9350   9.9603  10.0086  10.0435  10.0998
    10.1384  10.1745  10.2068  10.2659  10.3694  10.3947  10.4436  10.4701
    10.5304  10.5816  10.6030  10.6401  10.7058  10.7355  10.7947  10.8120
    10.8675  10.9214  11.0035  11.0522  11.1715  11.1977  11.2864  11.3160
    11.3515  11.4264  11.5319  11.5509  11.6106  11.7211  11.7437  11.8002
    11.8387  11.8608  11.8884  11.9189  11.9583  11.9837  12.0073  12.0558
    12.0677  12.0865  12.0959  12.1621  12.1934  12.2208  12.2513  12.2832
    12.2936  12.3271  12.3548  12.3715  12.4054  12.4155  12.4278  12.4963
    12.5216  12.5564  12.6377  12.6828  12.7175  12.7671  12.8397  12.8860
    12.9132  12.9782  13.0073  13.0474  13.0803  13.1192  13.1618  13.2009
    13.4240  13.6867  13.8139  13.8415  14.0241  14.1729  14.4421  14.9302
    15.3261  15.5752  15.8649  16.0495  16.3028  16.6564  16.7812  17.0516
    17.2111  17.2863  17.3574  17.4261  17.4809  17.4966  17.5580  17.6672
    17.8248  17.9770  18.0709  18.2600  18.4045  18.4885  18.5580  19.1992
    19.4608  19.9856

          k = 0.0000-0.3536 0.4081 ( 13687 PWs)   bands (ev):

   -66.4130 -66.3800 -66.3539 -66.3460 -66.3457 -61.8900 -61.8785 -61.8781
   -35.1967 -35.1370 -35.1345 -35.1339 -35.1327 -35.1197 -35.1167 -35.1152
   -35.1151 -35.0956 -35.0935 -35.0902 -35.0539 -35.0514 -35.0492 -30.7193
   -30.7171 -30.7142 -30.7078 -30.7074 -30.7056 -30.7055 -30.6994 -30.6991
     6.5221   7.3878   8.1877   8.3057   8.4144   8.4458   8.5068   8.5663
     8.6874   8.7415   8.9154   9.0125   9.0471   9.0914   9.1237   9.1488
     9.1613   9.2003   9.2736   9.3259   9.4044   9.4592   9.5044   9.5460
     9.5745   9.5893   9.6204   9.6443   9.6670   9.7139   9.7330   9.7888
     9.8616   9.8982   9.9489   9.9617   9.9905  10.0742  10.1166  10.1368
    10.2034  10.2979  10.3280  10.3903  10.4227  10.4762  10.5018  10.6161
    10.6270  10.6884  10.6983  10.7615  10.7813  10.8460  10.8720  10.9023
    10.9383  11.0211  11.0316  11.0942  11.1502  11.1824  11.3083  11.3181
    11.3998  11.4296  11.4844  11.5128  11.5464  11.5949  11.6436  11.6999
    11.7390  11.8244  11.8423  11.8771  11.9094  11.9337  11.9723  11.9971
    12.0286  12.0387  12.0649  12.1095  12.1370  12.1635  12.1806  12.2142
    12.2325  12.2761  12.2958  12.3159  12.3421  12.3507  12.3762  12.3893
    12.5056  12.5241  12.5703  12.5952  12.6263  12.6642  12.7060  12.7168
    12.7649  12.7907  12.8469  12.9017  12.9252  12.9532  12.9949  13.0428
    13.1387  13.1584  14.2676  14.3607  14.4050  14.7427  14.9673  15.1238
    15.5392  15.9040  16.1588  16.4271  16.6696  16.7375  16.9032  17.1020
    17.2163  17.3279  17.3906  17.4633  17.5469  17.6325  17.7778  17.8433
    18.0568  18.1889  18.3690  18.5123  18.8242  18.8938  19.0589  19.3872
    19.9819  20.1801

          k = 0.5303 0.1768 0.2721 ( 13658 PWs)   bands (ev):

   -66.4130 -66.3800 -66.3539 -66.3460 -66.3457 -61.8900 -61.8785 -61.8781
   -35.1967 -35.1370 -35.1345 -35.1339 -35.1327 -35.1197 -35.1166 -35.1152
   -35.1151 -35.0956 -35.0936 -35.0902 -35.0539 -35.0514 -35.0492 -30.7192
   -30.7171 -30.7143 -30.7078 -30.7074 -30.7056 -30.7055 -30.6993 -30.6992
     6.6698   6.7153   7.5146   7.5554   8.4608   8.5069   8.7134   8.8032
     8.8871   8.8936   8.9921   8.9952   9.2632   9.2664   9.2870   9.2933
     9.3349   9.3694   9.3773   9.3833   9.4514   9.4587   9.5339   9.5559
     9.5837   9.5881   9.6705   9.7564   9.7777   9.8039   9.9022   9.9183
     9.9563   9.9913  10.1660  10.1684  10.1825  10.2026  10.2464  10.2468
    10.2805  10.3277  10.3629  10.4116  10.4278  10.4674  10.5254  10.5429
    10.5872  10.5975  10.6745  10.7159  10.7202  10.7455  10.8017  10.8471
    10.8737  10.8847  10.9072  10.9513  11.0460  11.0693  11.1315  11.1501
    11.1717  11.2371  11.2897  11.3300  11.3323  11.3709  11.3731  11.4147
    11.4513  11.4768  11.5377  11.5841  11.6060  11.6829  11.7014  11.7795
    11.8180  11.8277  11.8671  11.9103  11.9279  11.9815  12.0552  12.1132
    12.1176  12.1701  12.2062  12.2622  12.2879  12.3030  12.3494  12.3790
    12.4574  12.5574  12.5681  12.6199  12.6663  12.7286  12.7377  12.8545
    12.8819  12.9186  12.9720  12.9978  13.0491  13.1162  13.2386  14.1025
    14.5191  14.6413  14.7733  15.0553  15.4168  15.4201  15.5863  15.7662
    15.8620  16.0806  16.2294  16.3362  16.7856  16.8411  16.9681  17.1736
    17.2164  17.3172  17.5123  17.5366  17.6208  17.7498  17.7764  17.7944
    17.9711  18.0288  18.2354  18.3386  18.3885  18.5020  19.6739  19.8673
    20.0603  20.0764

          k = 0.5303 0.1768-0.2721 ( 13683 PWs)   bands (ev):

   -66.4130 -66.3800 -66.3539 -66.3460 -66.3457 -61.8900 -61.8785 -61.8781
   -35.1967 -35.1370 -35.1345 -35.1339 -35.1327 -35.1197 -35.1167 -35.1152
   -35.1151 -35.0955 -35.0936 -35.0902 -35.0539 -35.0513 -35.0492 -30.7193
   -30.7171 -30.7142 -30.7078 -30.7074 -30.7056 -30.7055 -30.6993 -30.6992
     6.6925   7.5329   7.6677   8.2156   8.4801   8.4866   8.6123   8.7446
[...]
    11.8505  11.8521  11.8634  11.9303  11.9594  11.9642  12.0438  12.0507
    12.1157  12.1570  12.1700  12.2193  12.2341  12.2579  12.2631  12.2989
    12.3020  12.3398  12.3613  12.5574  12.5617  12.6565  12.7133  12.7424
    12.7449  12.7653  12.7988  12.8553  12.8743  12.9875  13.0832  14.0553
    14.0895  14.5651  15.0102  15.3049  15.4740  15.5536  15.6275  15.8456
    15.8765  16.1212  16.2662  16.5932  16.8073  16.8589  16.9732  17.0273
    17.0622  17.1585  17.2741  17.3871  17.3961  17.4445  17.4458  17.4784
    17.5281  17.6268  17.8192  17.9577  17.9969  18.0647  18.3547  18.3671
    18.4001  18.4889  18.6490  18.7197  18.8312  19.4216  19.5978  20.0728
    20.1511  20.2712

          k =-0.3536 0.3536-0.5441 ( 13686 PWs)   bands (ev):

   -66.4810 -66.4613 -66.4610 -61.8355 -61.8256 -61.8051 -61.8048 -61.8018
   -35.2484 -35.2281 -35.2280 -35.2161 -35.2105 -35.2097 -35.1990 -35.1685
   -35.1683 -30.6700 -30.6621 -30.6598 -30.6588 -30.6522 -30.6450 -30.6405
   -30.6383 -30.6374 -30.6314 -30.6311 -30.6296 -30.6267 -30.6242 -30.6186
     6.9740   7.0906   7.9590   8.1048   8.5933   8.6995   8.7658   8.7905
     8.8593   8.9332   9.0610   9.0839   9.1311   9.1757   9.2485   9.2654
     9.2847   9.3045   9.3497   9.3774   9.4085   9.4575   9.4967   9.5042
     9.5817   9.6591   9.6948   9.7314   9.7985   9.8615   9.8676   9.9164
     9.9386  10.0349  10.0945  10.1919  10.2214  10.2563  10.2851  10.3231
    10.3366  10.3959  10.4683  10.5157  10.5500  10.6431  10.7438  10.7772
    10.8339  10.8696  10.9206  10.9499  10.9660  11.0058  11.0270  11.0396
    11.0973  11.1483  11.1874  11.1902  11.2140  11.2715  11.3489  11.3888
    11.4307  11.4692  11.5381  11.5702  11.5909  11.6271  11.7024  11.7619
    11.7958  11.8666  11.8776  11.8927  11.9481  11.9865  12.0021  12.0781
    12.1047  12.1562  12.2069  12.2747  12.3411  12.3479  12.3685  12.3779
    12.3887  12.4221  12.4676  12.5285  12.5739  12.6044  12.6417  12.6787
    12.7233  12.8436  12.9096  12.9649  13.0998  13.4052  13.4532  13.5472
    13.6901  13.9148  14.3351  14.5707  14.7992  15.0857  15.4938  15.5579
    15.7643  15.7951  16.1054  16.2414  16.2947  17.0987  17.1964  17.2726
    17.2845  17.3013  17.3423  17.3755  17.4121  17.4502  17.4737  17.4999
    17.5638  17.6469  17.7541  17.7813  17.8344  17.9174  18.0394  18.4066
    18.4156  18.4863  18.5433  18.6805  18.7022  19.1051  19.3718  19.4293
    20.3631  20.4319

          k =-0.3536 0.3536 1.0883 ( 13708 PWs)   bands (ev):

   -66.4810 -66.4613 -66.4610 -61.8355 -61.8256 -61.8051 -61.8048 -61.8018
   -35.2484 -35.2281 -35.2280 -35.2161 -35.2105 -35.2097 -35.1990 -35.1685
   -35.1683 -30.6701 -30.6621 -30.6597 -30.6588 -30.6522 -30.6449 -30.6406
   -30.6383 -30.6374 -30.6315 -30.6311 -30.6296 -30.6267 -30.6242 -30.6186
     8.0923   8.1731   8.3066   8.3528   8.4730   8.4848   8.5229   8.5549
     8.6268   8.7214   8.7970   8.8707   8.9444   9.0110   9.0848   9.1159
     9.2766   9.3446   9.5124   9.5126   9.5441   9.5682   9.5979   9.6258
     9.6891   9.6985   9.7512   9.7515   9.7960   9.8112   9.8650   9.9117
     9.9803   9.9992  10.0016  10.0363  10.0429  10.0913  10.1010  10.1283
    10.1496  10.1719  10.2183  10.2700  10.3073  10.3458  10.4077  10.4839
    10.5302  10.6572  10.7008  10.7449  10.7626  10.7643  10.8101  11.0928
    11.1374  11.1987  11.2937  11.3261  11.3349  11.4096  11.4374  11.5443
    11.5600  11.6010  11.6235  11.7193  11.7647  11.7735  11.8693  11.9014
    11.9303  11.9723  12.0110  12.0326  12.0905  12.1049  12.1630  12.1856
    12.2050  12.2418  12.2745  12.2971  12.3288  12.3891  12.4232  12.4978
    12.5016  12.5332  12.5379  12.5990  12.6051  12.6102  12.7337  12.7471
    12.8173  12.8534  12.9629  13.0134  13.0922  13.1010  13.2704  13.6710
    13.9876  14.0962  14.0990  14.5515  14.9166  15.1752  15.2098  15.2730
    15.5391  15.5485  15.6552  15.9627  16.1346  16.9708  17.0256  17.0730
    17.3006  17.3066  17.3186  17.3871  17.4266  17.4334  17.4682  17.5066
    17.5435  17.5666  17.6018  17.6754  17.8059  17.8373  17.8997  18.0244
    18.0357  18.0982  18.3041  18.3978  18.4311  18.4833  18.7765  19.4497
    19.7953  19.8380

          k =-0.5303 0.1768-0.1360 ( 13660 PWs)   bands (ev):

   -66.4810 -66.4613 -66.4610 -61.8355 -61.8256 -61.8051 -61.8048 -61.8018
   -35.2484 -35.2280 -35.2280 -35.2161 -35.2105 -35.2097 -35.1990 -35.1685
   -35.1683 -30.6700 -30.6621 -30.6599 -30.6588 -30.6522 -30.6450 -30.6404
   -30.6388 -30.6371 -30.6313 -30.6311 -30.6296 -30.6268 -30.6242 -30.6186
     6.5602   6.6979   7.6618   7.7717   8.3524   8.6617   8.7386   8.8328
     8.8876   8.9353   9.1338   9.1842   9.2121   9.3185   9.3367   9.4045
     9.4253   9.4559   9.5152   9.5332   9.5963   9.6613   9.6702   9.6908
     9.7469   9.8392   9.8735   9.9076   9.9485   9.9663  10.0125  10.0348
    10.0622  10.0824  10.1043  10.1154  10.2087  10.2162  10.2291  10.2799
    10.3153  10.3870  10.4324  10.4722  10.5700  10.6112  10.6173  10.6480
    10.6925  10.7511  10.7805  10.7986  10.8459  10.9082  10.9240  10.9559
    11.0389  11.1339  11.1685  11.1830  11.1910  11.2714  11.3059  11.3540
    11.3896  11.4017  11.4365  11.4761  11.5330  11.5547  11.6085  11.6237
    11.7014  11.7403  11.7690  11.7955  11.8741  11.9147  11.9409  12.0042
    12.0691  12.1004  12.1339  12.1952  12.2042  12.2608  12.2817  12.3130
    12.3518  12.4480  12.4925  12.5494  12.6040  12.6347  12.6718  12.7571
    12.7965  12.8441  12.8889  13.0109  13.0633  13.2546  13.6248  13.8844
    14.0679  14.7014  15.0041  15.1353  15.3381  15.4457  15.5109  15.7163
    16.0228  16.1741  16.3726  16.4893  16.6612  16.8682  17.0656  17.1682
    17.2106  17.2578  17.3459  17.3695  17.4454  17.4625  17.4771  17.5178
    17.5936  17.6327  17.8031  17.8992  18.0022  18.1683  18.2001  18.2828
    18.4282  18.4637  18.5354  18.5771  18.8047  19.1051  19.6108  19.9924
    20.4981  20.7208

          k =-0.5303 0.1768-0.6802 ( 13694 PWs)   bands (ev):

   -66.4810 -66.4613 -66.4610 -61.8355 -61.8256 -61.8051 -61.8048 -61.8018
   -35.2484 -35.2281 -35.2280 -35.2161 -35.2105 -35.2097 -35.1990 -35.1685
   -35.1683 -30.6700 -30.6621 -30.6598 -30.6588 -30.6522 -30.6450 -30.6404
   -30.6388 -30.6371 -30.6314 -30.6311 -30.6296 -30.6268 -30.6242 -30.6186
     7.3514   7.4286   7.4683   7.5529   8.7093   8.7890   8.8945   8.9767
     8.9852   9.0158   9.0270   9.0745   9.0964   9.1045   9.1712   9.2126
     9.2599   9.3082   9.3330   9.3823   9.4255   9.4760   9.5247   9.5478
     9.5677   9.6224   9.6566   9.6809   9.6974   9.8272   9.8769   9.9719
    10.0829  10.0885  10.1180  10.1693  10.2566  10.3157  10.3477  10.3676
    10.3951  10.4117  10.4543  10.4889  10.5510  10.5652  10.5953  10.6244
    10.7122  10.8297  10.8915  10.9142  10.9504  10.9999  11.0125  11.0623
    11.0919  11.1173  11.1708  11.1836  11.2052  11.2398  11.2555  11.3049
    11.3113  11.4104  11.4456  11.4975  11.5476  11.5819  11.6332  11.7153
    11.7555  11.8741  11.8820  11.9334  11.9706  11.9975  12.0371  12.0833
    12.1280  12.1476  12.1743  12.2529  12.2778  12.3262  12.3526  12.3602
    12.4035  12.4297  12.5048  12.5786  12.6008  12.6245  12.6539  12.6965
    12.8093  12.8278  12.9336  13.2869  13.4855  13.5896  13.7178  13.8073
    13.8159  13.9078  14.1441  14.6735  14.7814  14.8222  15.1451  15.5753
    15.6506  16.0197  16.1149  16.4779  16.5097  17.1065  17.1745  17.1987
    17.3071  17.3209  17.3513  17.4114  17.4288  17.4447  17.4783  17.5776
    17.6133  17.6749  17.7424  17.7529  17.8586  18.0852  18.1321  18.2820
    18.2886  18.3368  18.6467  18.7175  18.8196  18.9052  19.0513  19.1800
    19.7835  20.0908

          k =-0.5303 0.1768 0.9522 ( 13712 PWs)   bands (ev):

   -66.4810 -66.4613 -66.4610 -61.8355 -61.8256 -61.8051 -61.8048 -61.8018
   -35.2484 -35.2281 -35.2280 -35.2161 -35.2105 -35.2097 -35.1990 -35.1685
   -35.1683 -30.6701 -30.6621 -30.6597 -30.6588 -30.6522 -30.6449 -30.6404
   -30.6388 -30.6371 -30.6314 -30.6311 -30.6296 -30.6268 -30.6242 -30.6186
     7.9801   8.0128   8.0676   8.1512   8.5527   8.6135   8.6397   8.6649
     8.7384   8.8009   8.8452   8.8775   9.0108   9.0222   9.0915   9.1339
     9.2989   9.3225   9.3623   9.4117   9.4868   9.5051   9.5170   9.5540
     9.6049   9.6414   9.6812   9.7372   9.7408   9.7682   9.8228   9.8633
     9.9237   9.9421   9.9690  10.0523  10.0648  10.1075  10.1707  10.1781
    10.1852  10.2497  10.2723  10.3316  10.4482  10.4754  10.5663  10.6837
    10.7254  10.8107  10.8303  10.8587  10.8943  10.9163  10.9630  11.1042
    11.1451  11.1849  11.2466  11.2965  11.3724  11.4073  11.4575  11.5158
    11.5991  11.6346  11.6478  11.7306  11.7509  11.8213  11.8809  11.9172
    11.9545  11.9726  11.9997  12.0593  12.0850  12.1173  12.1437  12.1806
    12.1935  12.1956  12.2270  12.2530  12.2864  12.3114  12.4063  12.4196
    12.4401  12.4848  12.5406  12.5591  12.5869  12.6587  12.7168  12.7661
    12.8896  12.9327  13.0215  13.0287  13.0529  13.0833  13.1673  13.6027
    13.6131  13.8399  14.0519  14.3430  14.5165  14.5620  15.0051  15.3293
    15.4864  15.6868  15.9906  16.1728  16.2201  17.0143  17.0649  17.1317
    17.2046  17.2759  17.3634  17.4139  17.4300  17.4451  17.4724  17.4808
    17.4992  17.5413  17.5817  17.6407  17.7045  17.7832  17.9486  18.0920
    18.1846  18.2797  18.3190  18.3980  18.4408  18.5160  18.5528  18.6657
    19.7318  20.0886

          k =-0.5303 0.1768 0.4081 ( 13670 PWs)   bands (ev):

   -66.4810 -66.4613 -66.4610 -61.8355 -61.8256 -61.8051 -61.8048 -61.8018
   -35.2484 -35.2280 -35.2280 -35.2161 -35.2105 -35.2097 -35.1990 -35.1685
   -35.1683 -30.6700 -30.6621 -30.6598 -30.6588 -30.6522 -30.6450 -30.6404
   -30.6388 -30.6371 -30.6313 -30.6311 -30.6296 -30.6268 -30.6242 -30.6186
     6.8439   6.9699   8.3806   8.4089   8.5005   8.5647   8.5897   8.6141
     8.7206   8.8492   9.0824   9.0991   9.1353   9.2187   9.2276   9.2605
     9.3066   9.3325   9.3812   9.4163   9.4603   9.4778   9.5296   9.6066
     9.6371   9.6634   9.6944   9.7551   9.7787   9.8435   9.8795   9.8962
     9.9655   9.9741  10.0671  10.1391  10.1615  10.1762  10.1876  10.2636
    10.3260  10.4190  10.4638  10.5617  10.5964  10.6567  10.6878  10.7631
    10.8712  10.8756  10.9118  10.9369  11.0261  11.0517  11.1011  11.1188
    11.1434  11.1646  11.1934  11.2313  11.2850  11.3929  11.4245  11.4425
    11.4799  11.5489  11.6160  11.6212  11.6702  11.6821  11.7470  11.7990
    11.8362  11.8680  11.8853  11.9399  11.9719  12.0263  12.0494  12.1237
    12.1392  12.1491  12.2303  12.2395  12.2507  12.2800  12.3246  12.3691
    12.4396  12.4599  12.4936  12.5292  12.5628  12.6215  12.6489  12.6971
    12.7245  12.7805  12.8055  12.8598  12.8670  12.8879  12.9446  13.4124
    13.4973  14.4295  14.6821  14.8596  14.9425  15.0945  15.3167  15.5047
    15.5899  15.6630  15.8768  15.9768  16.4746  16.9675  17.0708  17.1265
    17.2071  17.3188  17.3362  17.3650  17.4001  17.4241  17.4392  17.5124
    17.5841  17.6288  17.6583  17.8062  17.8442  17.9084  18.0415  18.2428
    18.2771  18.4010  18.4549  18.4798  19.3315  19.5349  19.7495  19.7832
    19.8857  20.0267

          k = 0.0000 0.7071 0.2721 ( 13680 PWs)   bands (ev):

   -66.4810 -66.4614 -66.4610 -61.8355 -61.8256 -61.8051 -61.8048 -61.8018
   -35.2484 -35.2280 -35.2280 -35.2161 -35.2105 -35.2097 -35.1990 -35.1684
   -35.1684 -30.6700 -30.6621 -30.6599 -30.6588 -30.6522 -30.6450 -30.6401
   -30.6392 -30.6370 -30.6312 -30.6311 -30.6296 -30.6268 -30.6242 -30.6186
     6.9700   7.0378   7.1192   7.1570   8.5905   8.7197   8.9007   8.9455
     9.0165   9.0256   9.1391   9.1729   9.2302   9.2476   9.2723   9.2852
     9.3846   9.4291   9.4379   9.5307   9.5733   9.5789   9.6136   9.6303
     9.6916   9.7256   9.7878   9.8885  10.0145  10.0376  10.0574  10.0639
    10.0747  10.1302  10.1393  10.1683  10.1783  10.1847  10.2157  10.2372
    10.3581  10.4853  10.4965  10.5776  10.5802  10.6202  10.6979  10.7159
    10.7789  10.7938  10.8247  10.8416  10.8892  10.9675  11.0735  11.0788
    11.0883  11.1193  11.1250  11.1712  11.1745  11.2008  11.2310  11.2565
    11.2873  11.2986  11.3502  11.3861  11.3886  11.4624  11.4772  11.5217
    11.5529  11.6317  11.6836  11.8046  11.8410  11.8876  11.9516  12.0135
    12.0362  12.0834  12.0862  12.1897  12.1911  12.2446  12.2704  12.2853
    12.3503  12.4500  12.5951  12.6060  12.6290  12.6578  12.6951  12.6972
    12.8014  12.8276  12.8633  13.2946  13.4621  13.5784  13.5934  14.1189
    14.2385  14.5820  14.9548  15.0145  15.1914  15.3181  15.3780  15.6751
    15.7845  16.0291  16.3646  16.6549  16.7910  16.8841  16.9411  17.2473
    17.3067  17.3453  17.3538  17.4460  17.4698  17.5162  17.5895  17.6666
    17.6880  17.7426  17.7913  17.9215  18.0051  18.1247  18.1641  18.1872
    18.3569  18.3656  18.6274  18.7090  19.0914  19.1709  19.2586  19.3152
    20.6983  20.7385

          k = 0.0000 0.7071-0.2721 ( 13688 PWs)   bands (ev):

   -66.4810 -66.4613 -66.4610 -61.8355 -61.8256 -61.8051 -61.8048 -61.8018
   -35.2484 -35.2280 -35.2280 -35.2161 -35.2105 -35.2097 -35.1990 -35.1684
   -35.1684 -30.6700 -30.6621 -30.6598 -30.6588 -30.6522 -30.6450 -30.6402
   -30.6392 -30.6369 -30.6313 -30.6311 -30.6296 -30.6268 -30.6242 -30.6186
     7.0073   7.1325   7.8958   7.9944   8.6482   8.6709   8.7108   8.8312
     8.8786   8.9159   9.0469   9.0710   9.1339   9.1407   9.1862   9.2370
     9.2723   9.2876   9.3606   9.4446   9.5083   9.5327   9.5737   9.6034
     9.6177   9.6714   9.7274   9.7420   9.7463   9.8223   9.9089  10.0018
    10.0490  10.0674  10.1083  10.1256  10.1411  10.1810  10.2072  10.2281
    10.2436  10.2817  10.4507  10.5494  10.5659  10.6253  10.6567  10.7395
    10.8458  10.8749  10.9153  10.9575  11.0248  11.0665  11.0780  11.1089
    11.1279  11.1652  11.1737  11.2117  11.2242  11.2366  11.3001  11.3775
    11.4225  11.4542  11.4616  11.5432  11.5626  11.5911  11.6699  11.7765
    11.7997  11.9114  11.9284  11.9794  12.0070  12.0120  12.0447  12.0697
    12.0756  12.1432  12.1626  12.2361  12.2414  12.2738  12.3148  12.3334
    12.3919  12.4575  12.5297  12.6146  12.6269  12.6460  12.6633  12.6805
    12.7610  12.8019  12.8172  13.1288  13.2618  13.2868  13.4764  13.5245
    13.6580  14.1654  14.2821  14.5791  14.7587  15.1800  15.3035  15.6314
    15.7631  15.8584  16.2053  16.3436  16.6361  16.7701  16.8638  17.1618
    17.2523  17.2964  17.3466  17.4126  17.4394  17.4466  17.5393  17.5610
    17.5793  17.6410  17.7063  17.7778  17.8757  17.9630  18.0540  18.1828
    18.2485  18.3154  18.4003  18.4239  18.5691  18.6706  19.1638  19.2682
    20.6063  20.7743

          k = 0.0000 0.7071 1.3603 ( 13696 PWs)   bands (ev):

   -66.4810 -66.4613 -66.4610 -61.8355 -61.8256 -61.8051 -61.8048 -61.8019
   -35.2484 -35.2281 -35.2280 -35.2161 -35.2105 -35.2097 -35.1990 -35.1684
   -35.1684 -30.6701 -30.6621 -30.6598 -30.6588 -30.6522 -30.6449 -30.6402
   -30.6392 -30.6369 -30.6314 -30.6312 -30.6296 -30.6268 -30.6242 -30.6186
     7.8539   7.9149   8.0064   8.0105   8.5970   8.6504   8.6973   8.7304
     8.8197   8.8381   8.8804   8.9544   9.0567   9.0734   9.1091   9.1584
     9.1809   9.1873   9.2661   9.2896   9.4521   9.4862   9.5247   9.5595
     9.5987   9.6110   9.6303   9.6779   9.7151   9.7241   9.7816   9.7878
     9.8538   9.9391   9.9958  10.0684  10.0995  10.1804  10.1849  10.2195
    10.2196  10.2298  10.2932  10.2999  10.5174  10.5276  10.7762  10.8248
    10.9153  10.9464  11.0032  11.0299  11.0546  11.0844  11.1223  11.1562
    11.2116  11.2245  11.2627  11.2963  11.4149  11.4489  11.4939  11.5231
    11.5326  11.6675  11.6764  11.7336  11.8235  11.8945  11.9134  11.9488
    11.9511  11.9950  12.0164  12.0250  12.0281  12.0610  12.0736  12.1227
    12.1309  12.2232  12.2339  12.2529  12.2862  12.3059  12.3312  12.3644
    12.4039  12.4529  12.5220  12.6177  12.6248  12.6439  12.6561  12.6577
    12.6916  12.7139  12.8236  13.0852  13.1595  13.2076  13.2509  13.3684
    13.4060  13.6067  13.7626  14.1451  14.2847  14.5690  14.6483  15.4876
    15.5660  15.8886  16.1504  16.3088  16.4189  16.6132  16.7405  17.0602
    17.2490  17.2733  17.2839  17.3088  17.4235  17.4413  17.4420  17.4777
    17.5202  17.5641  17.6055  17.6148  17.6768  17.7289  17.8679  18.0886
    18.2313  18.2908  18.3326  18.3978  18.4270  18.4450  18.5871  18.6258
    20.5740  20.7210

     the Fermi energy is    15.5680 ev

!    total energy              =  -14693.94010249 Ry
     Harris-Foulkes estimate   =  -14693.94008828 Ry
     estimated scf accuracy    <       0.00000065 Ry

     total all-electron energy =   -626921.535824 Ry

     The total energy is the sum of the following terms:

     one-electron contribution =    -698.53600212 Ry
     hartree contribution      =     651.65902422 Ry
     xc contribution           =    -738.09714660 Ry
     ewald contribution        =   -2207.56121140 Ry
     Hubbard energy            =       0.46201553 Ry
     one-center paw contrib.   =  -11701.86678211 Ry

     total magnetization       =     8.46 Bohr mag/cell
     absolute magnetization    =    36.77 Bohr mag/cell

     convergence has been achieved in  20 iterations

     Writing output data file mnau2.save/
 
     init_run     :     21.74s CPU     22.54s WALL (       1 calls)
     electrons    :   1028.06s CPU   1056.21s WALL (       1 calls)

     Called by init_run:
     wfcinit      :     19.39s CPU     20.10s WALL (       1 calls)
     potinit      :      1.19s CPU      1.21s WALL (       1 calls)
     hinit0       :      0.70s CPU      0.73s WALL (       1 calls)

     Called by electrons:
     c_bands      :    896.56s CPU    919.98s WALL (      20 calls)
     sum_band     :    108.37s CPU    111.95s WALL (      20 calls)
     v_of_rho     :      1.87s CPU      1.89s WALL (      21 calls)
     newd         :      7.10s CPU      7.87s WALL (      21 calls)
     PAW_pot      :     14.75s CPU     14.82s WALL (      21 calls)
     mix_rho      :      0.30s CPU      0.32s WALL (      20 calls)

     Called by c_bands:
     init_us_2    :      8.43s CPU      8.50s WALL (    2520 calls)
     cegterg      :    855.36s CPU    878.25s WALL (    1200 calls)

     Called by sum_band:
     sum_band:bec :      1.02s CPU      1.03s WALL (    1200 calls)
     addusdens    :     13.24s CPU     14.52s WALL (      20 calls)

     Called by *egterg:
     h_psi        :    367.28s CPU    378.60s WALL (    4598 calls)
     s_psi        :     55.43s CPU     55.61s WALL (    4658 calls)
     g_psi        :      2.00s CPU      2.01s WALL (    3338 calls)
     cdiaghg      :    316.57s CPU    322.35s WALL (    4538 calls)

     Called by h_psi:
     h_psi:pot    :    346.75s CPU    355.53s WALL (    4598 calls)
     h_psi:calbec :     52.94s CPU     55.06s WALL (    4598 calls)
     vloc_psi     :    239.81s CPU    245.91s WALL (    4598 calls)
     add_vuspsi   :     53.96s CPU     54.53s WALL (    4598 calls)
     vhpsi        :     18.06s CPU     18.15s WALL (    4598 calls)

     General routines
     calbec       :     86.31s CPU     89.16s WALL (   11656 calls)
     fft          :      0.98s CPU      1.00s WALL (     521 calls)
     ffts         :      0.04s CPU      0.05s WALL (      82 calls)
     fftw         :    265.81s CPU    272.36s WALL ( 1183412 calls)
     interpolate  :      0.11s CPU      0.11s WALL (      42 calls)
     davcio       :      0.01s CPU      0.24s WALL (      60 calls)
 
     Parallel routines
     fft_scatt_xy :     33.73s CPU     34.50s WALL ( 1184015 calls)
     fft_scatt_yz :     87.80s CPU     90.24s WALL ( 1184015 calls)

     Hubbard U routines
     new_ns       :      4.93s CPU      5.19s WALL (      20 calls)
     vhpsi        :     18.06s CPU     18.15s WALL (    4598 calls)
 
     PWSCF        : 17m34.91s CPU    18m19.14s WALL

 
   This run was terminated on:  13: 1:52  26Mar2019            

=------------------------------------------------------------------------------=
   JOB DONE.
=------------------------------------------------------------------------------=
