
     Program PWSCF v.6.3MaX starts on 26Mar2019 at 13: 1:53 

     This program is part of the open-source Quantum ESPRESSO suite
     for quantum simulation of materials; please cite
         "P. Giannozzi et al., J. Phys.:Condens. Matter 21 395502 (2009);
         "P. Giannozzi et al., J. Phys.:Condens. Matter 29 465901 (2017);
          URL http://www.quantum-espresso.org", 
     in publications or presentations arising from this work. More details at
     http://www.quantum-espresso.org/quote

     Parallel version (MPI), running on    16 processors

     MPI processes distributed on     1 nodes
     R & G space division:  proc/nbgrp/npool/nimage =      16
     Waiting for input...
     Reading input from standard input

     Current dimensions of program PWSCF are:
     Max number of different atomic species (ntypx) = 10
     Max number of k-points (npk) =  40000
     Max angular momentum in pseudopotentials (lmaxx) =  3
     Message from routine read_upf::
     Pseudo file ./pseudo/Mn.pbe-spn-kjpaw_psl.0.3.1.UPF has been successfully fixed on the fly.
To avoid this message in the future you can permanently fix 
 your pseudo files following instructions given in: 
https://gitlab.com/QEF/q-e/blob/master/upftools/how_to_fix_upf.md
               file Mn.pbe-spn-kjpaw_psl.0.3.1.UPF: wavefunction(s)  3P 3D renormalized
     Message from routine read_upf::
     Pseudo file ./pseudo/Mn.pbe-spn-kjpaw_psl.0.3.1.UPF has been successfully fixed on the fly.
To avoid this message in the future you can permanently fix 
 your pseudo files following instructions given in: 
https://gitlab.com/QEF/q-e/blob/master/upftools/how_to_fix_upf.md
               file Mn.pbe-spn-kjpaw_psl.0.3.1.UPF: wavefunction(s)  3P 3D renormalized
     Message from routine read_upf::
     Pseudo file ./pseudo/Au.pbe-dn-kjpaw_psl.0.1.UPF has been successfully fixed on the fly.
To avoid this message in the future you can permanently fix 
 your pseudo files following instructions given in: 
https://gitlab.com/QEF/q-e/blob/master/upftools/how_to_fix_upf.md
               file Au.pbe-dn-kjpaw_psl.0.1.UPF: wavefunction(s)  6S 6P 5D renormalized

     Subspace diagonalization in iterative solution of the eigenvalue problem:
     one sub-group per band group will be used
     scalapack distributed-memory algorithm (size of sub-group:  2*  2 procs)

 
     Parallelization info
     --------------------
     sticks:   dense  smooth     PW     G-vecs:    dense   smooth      PW
     Min         646     290     84                22663     6843    1075
     Max         647     291     85                22664     6844    1077
     Sum       10349    4645   1353               362619   109493   17211
 


     bravais-lattice index     =            0
     lattice parameter (alat)  =      18.0125  a.u.
     unit-cell volume          =    2685.0513 (a.u.)^3
     number of atoms/cell      =           24
     number of atomic types    =            3
     number of electrons       =       296.00
     number of Kohn-Sham states=          178
     kinetic-energy cutoff     =      45.0000  Ry
     charge density cutoff     =     400.0000  Ry
     convergence threshold     =      1.0E-06
     mixing beta               =       0.1000
     number of iterations used =            8  plain     mixing
     Exchange-correlation      = SLA PW PBX PBC ( 1  4  3  4 0 0)

     celldm(1)=  18.012490  celldm(2)=   0.000000  celldm(3)=   0.000000
     celldm(4)=   0.000000  celldm(5)=   0.000000  celldm(6)=   0.000000

     crystal axes: (cart. coord. in units of alat)
               a(1) = (   0.707107  -0.707107   0.000000 )  
               a(2) = (  -0.707107  -0.707107   0.000000 )  
               a(3) = (   0.176777   0.176777  -0.459443 )  

     reciprocal axes: (cart. coord. in units 2 pi/alat)
               b(1) = (  0.707107 -0.707107  0.000000 )  
               b(2) = ( -0.707107 -0.707107 -0.544138 )  
               b(3) = (  0.000000  0.000000 -2.176550 )  


     PseudoPot. # 1 for Mn read from file:
     ./pseudo/Mn.pbe-spn-kjpaw_psl.0.3.1.UPF
     MD5 check sum: 7eef95dd2aae66803482eea66ebeebf1
     Pseudo is Projector augmented-wave + core cor, Zval = 15.0
     Generated using "atomic" code by A. Dal Corso v.5.0.99 svn rev. 10869
     Shape of augmentation charge: PSQ
     Using radial grid of 1187 points,  6 beta functions with: 
                l(1) =   0
                l(2) =   0
                l(3) =   1
                l(4) =   1
                l(5) =   2
                l(6) =   2
     Q(r) pseudized with 0 coefficients 


     PseudoPot. # 2 for Mn read from file:
     ./pseudo/Mn.pbe-spn-kjpaw_psl.0.3.1.UPF
     MD5 check sum: 7eef95dd2aae66803482eea66ebeebf1
     Pseudo is Projector augmented-wave + core cor, Zval = 15.0
     Generated using "atomic" code by A. Dal Corso v.5.0.99 svn rev. 10869
     Shape of augmentation charge: PSQ
     Using radial grid of 1187 points,  6 beta functions with: 
                l(1) =   0
                l(2) =   0
                l(3) =   1
                l(4) =   1
                l(5) =   2
                l(6) =   2
     Q(r) pseudized with 0 coefficients 


     PseudoPot. # 3 for Au read from file:
     ./pseudo/Au.pbe-dn-kjpaw_psl.0.1.UPF
     MD5 check sum: 5c9b92683623e7ae2ab3f8e525febab6
     Pseudo is Projector augmented-wave + core cor, Zval = 11.0
     Generated using "atomic" code by A. Dal Corso v.5.0.2 svn rev. 9415
     Shape of augmentation charge: PSQ
     Using radial grid of 1279 points,  6 beta functions with: 
                l(1) =   0
                l(2) =   0
                l(3) =   1
                l(4) =   1
                l(5) =   2
                l(6) =   2
     Q(r) pseudized with 0 coefficients 


     atomic species   valence    mass     pseudopotential
        Mn1           15.00    54.93800     Mn( 1.00)
        Mn2           15.00    54.93800     Mn( 1.00)
        Au            11.00   196.96600     Au( 1.00)

     Starting magnetic structure 
     atomic species   magnetization
        Mn1          1.000
        Mn2         -1.000
        Au           0.000


     Full LDA+U calculation (l_max = 2) with parameters (eV):
     U(  1) =   3.1200   J(  1) =   0.7000   B(  1) =   0.0803
     U(  2) =   3.1200   J(  2) =   0.7000   B(  2) =   0.0803



      4 Sym. Ops., with inversion, found ( 2 have fractional translation)



   Cartesian axes

     site n.     atom                  positions (alat units)
         1           Mn1 tau(   1) = (   0.3535534  -0.3535534   0.0000000  )
         2           Mn1 tau(   2) = (   0.0000000   0.0000000   0.0000000  )
         3           Mn2 tau(   3) = (   0.0000000  -0.3535534   0.0000000  )
         4           Mn1 tau(   4) = (   0.3535534  -0.7071068   0.0000000  )
         5           Mn2 tau(   5) = (  -0.3535534  -0.3535534   0.0000000  )
         6           Mn2 tau(   6) = (   0.0000000  -0.7071068   0.0000000  )
         7           Mn2 tau(   7) = (  -0.3535534  -0.7071068   0.0000000  )
         8           Mn1 tau(   8) = (   0.0000000  -1.0606602   0.0000000  )
         9           Au  tau(   9) = (  -0.1767767  -0.1767767  -0.1470216  )
        10           Au  tau(  10) = (   0.1767767  -0.5303301  -0.1470216  )
        11           Au  tau(  11) = (  -0.1767767  -0.5303301  -0.1470216  )
        12           Au  tau(  12) = (   0.1767767  -0.8838835  -0.1470216  )
        13           Au  tau(  13) = (  -0.5303301  -0.5303301  -0.1470216  )
        14           Au  tau(  14) = (  -0.1767767  -0.8838835  -0.1470216  )
        15           Au  tau(  15) = (   0.5303301  -0.5303301  -0.1470216  )
        16           Au  tau(  16) = (   0.1767767  -0.1767767  -0.1470216  )
        17           Au  tau(  17) = (   0.3535534  -0.3535534  -0.3124210  )
        18           Au  tau(  18) = (   0.0000000   0.0000000  -0.3124210  )
        19           Au  tau(  19) = (   0.0000000  -0.3535534  -0.3124210  )
        20           Au  tau(  20) = (   0.3535534  -0.7071068  -0.3124210  )
        21           Au  tau(  21) = (  -0.3535534  -0.3535534  -0.3124210  )
        22           Au  tau(  22) = (  -0.0000000  -0.7071068  -0.3124210  )
        23           Au  tau(  23) = (  -0.3535534  -0.7071068  -0.3124210  )
        24           Au  tau(  24) = (   0.0000000  -1.0606602  -0.3124210  )

     number of k points=    30 (tetrahedron method)
                       cart. coord. in units 2pi/alat
        k(    1) = (   0.0000000   0.0000000   0.0000000), wk =   0.0156250
        k(    2) = (   0.0000000   0.0000000  -0.5441376), wk =   0.0312500
        k(    3) = (   0.0000000   0.0000000   1.0882752), wk =   0.0156250
        k(    4) = (  -0.1767767  -0.1767767  -0.1360344), wk =   0.0312500
        k(    5) = (  -0.1767767  -0.1767767  -0.6801720), wk =   0.0312500
        k(    6) = (  -0.1767767  -0.1767767   0.9522408), wk =   0.0312500
        k(    7) = (  -0.1767767  -0.1767767   0.4081032), wk =   0.0312500
        k(    8) = (   0.3535534   0.3535534   0.2720688), wk =   0.0156250
        k(    9) = (   0.3535534   0.3535534  -0.2720688), wk =   0.0312500
        k(   10) = (   0.3535534   0.3535534   1.3603439), wk =   0.0156250
        k(   11) = (   0.1767767  -0.1767767   0.0000000), wk =   0.0312500
        k(   12) = (   0.1767767  -0.1767767  -0.5441376), wk =   0.0625000
        k(   13) = (   0.1767767  -0.1767767   1.0882752), wk =   0.0312500
        k(   14) = (   0.0000000  -0.3535534  -0.1360344), wk =   0.0625000
        k(   15) = (   0.0000000  -0.3535534  -0.6801720), wk =   0.0625000
        k(   16) = (   0.0000000  -0.3535534   0.9522408), wk =   0.0625000
        k(   17) = (   0.0000000  -0.3535534   0.4081032), wk =   0.0625000
        k(   18) = (   0.5303301   0.1767767   0.2720688), wk =   0.0312500
        k(   19) = (   0.5303301   0.1767767  -0.2720688), wk =   0.0625000
        k(   20) = (   0.5303301   0.1767767   1.3603439), wk =   0.0312500
        k(   21) = (  -0.3535534   0.3535534   0.0000000), wk =   0.0156250
        k(   22) = (  -0.3535534   0.3535534  -0.5441376), wk =   0.0312500
        k(   23) = (  -0.3535534   0.3535534   1.0882752), wk =   0.0156250
        k(   24) = (  -0.5303301   0.1767767  -0.1360344), wk =   0.0312500
        k(   25) = (  -0.5303301   0.1767767  -0.6801720), wk =   0.0312500
        k(   26) = (  -0.5303301   0.1767767   0.9522408), wk =   0.0312500
        k(   27) = (  -0.5303301   0.1767767   0.4081032), wk =   0.0312500
        k(   28) = (   0.0000000   0.7071068   0.2720688), wk =   0.0156250
        k(   29) = (   0.0000000   0.7071068  -0.2720688), wk =   0.0312500
        k(   30) = (   0.0000000   0.7071068   1.3603439), wk =   0.0156250

     Dense  grid:   362619 G-vectors     FFT dimensions: ( 120, 120,  60)

     Smooth grid:   109493 G-vectors     FFT dimensions: (  80,  80,  45)

     Estimated max dynamical RAM per process >     286.87 MB

     Estimated total dynamical RAM >       4.48 GB
     Generating pointlists ...
     new r_m :   0.1196 (alat units)  2.1549 (a.u.) for type    1
     new r_m :   0.1196 (alat units)  2.1549 (a.u.) for type    2
     new r_m :   0.1196 (alat units)  2.1549 (a.u.) for type    3

     Check: negative/imaginary core charge=   -0.000006    0.000000

     Initial potential from superposition of free atoms

     starting charge  295.99426, renormalised to  296.00000
     Number of +U iterations with fixed ns =  0
     Starting occupations:
 --- enter write_ns ---
 LDA+U parameters:
U(  1) =   3.1200   J(  1) =   0.7000   B(  1) =   0.0803
U(  2) =   3.1200   J(  2) =   0.7000   B(  2) =   0.0803
atom    1   Tr[ns(na)] (up, down, total) =   5.00000  0.00000  5.00000
   spin  1
    eigenvalues: 
  1.000  1.000  1.000  1.000  1.000
    eigenvectors:
  1.000  0.000  0.000  0.000  0.000
  0.000  1.000  0.000  0.000  0.000
  0.000  0.000  1.000  0.000  0.000
  0.000  0.000  0.000  1.000  0.000
  0.000  0.000  0.000  0.000  1.000
    occupations:
  1.000  0.000  0.000  0.000  0.000
  0.000  1.000  0.000  0.000  0.000
  0.000  0.000  1.000  0.000  0.000
  0.000  0.000  0.000  1.000  0.000
  0.000  0.000  0.000  0.000  1.000
   spin  2
    eigenvalues: 
  0.000  0.000  0.000  0.000  0.000
    eigenvectors:
  1.000  0.000  0.000  0.000  0.000
  0.000  1.000  0.000  0.000  0.000
  0.000  0.000  1.000  0.000  0.000
  0.000  0.000  0.000  1.000  0.000
  0.000  0.000  0.000  0.000  1.000
    occupations:
  0.000  0.000  0.000  0.000  0.000
  0.000  0.000  0.000  0.000  0.000
  0.000  0.000  0.000  0.000  0.000
  0.000  0.000  0.000  0.000  0.000
  0.000  0.000  0.000  0.000  0.000
atomic mag. moment =     5.000000
atom    2   Tr[ns(na)] (up, down, total) =   5.00000  0.00000  5.00000
   spin  1
    eigenvalues: 
  1.000  1.000  1.000  1.000  1.000
    eigenvectors:
  1.000  0.000  0.000  0.000  0.000
  0.000  1.000  0.000  0.000  0.000
  0.000  0.000  1.000  0.000  0.000
  0.000  0.000  0.000  1.000  0.000
  0.000  0.000  0.000  0.000  1.000
    occupations:
  1.000  0.000  0.000  0.000  0.000
  0.000  1.000  0.000  0.000  0.000
  0.000  0.000  1.000  0.000  0.000
  0.000  0.000  0.000  1.000  0.000
  0.000  0.000  0.000  0.000  1.000
   spin  2
    eigenvalues: 
  0.000  0.000  0.000  0.000  0.000
    eigenvectors:
  1.000  0.000  0.000  0.000  0.000
  0.000  1.000  0.000  0.000  0.000
  0.000  0.000  1.000  0.000  0.000
  0.000  0.000  0.000  1.000  0.000
  0.000  0.000  0.000  0.000  1.000
    occupations:
  0.000  0.000  0.000  0.000  0.000
  0.000  0.000  0.000  0.000  0.000
  0.000  0.000  0.000  0.000  0.000
  0.000  0.000  0.000  0.000  0.000
  0.000  0.000  0.000  0.000  0.000
atomic mag. moment =     5.000000
atom    3   Tr[ns(na)] (up, down, total) =   0.00000  5.00000  5.00000
   spin  1
    eigenvalues: 
  0.000  0.000  0.000  0.000  0.000
    eigenvectors:
  1.000  0.000  0.000  0.000  0.000
  0.000  1.000  0.000  0.000  0.000
  0.000  0.000  1.000  0.000  0.000
  0.000  0.000  0.000  1.000  0.000
  0.000  0.000  0.000  0.000  1.000
    occupations:
  0.000  0.000  0.000  0.000  0.000
  0.000  0.000  0.000  0.000  0.000
  0.000  0.000  0.000  0.000  0.000
  0.000  0.000  0.000  0.000  0.000
  0.000  0.000  0.000  0.000  0.000
   spin  2
    eigenvalues: 
  1.000  1.000  1.000  1.000  1.000
    eigenvectors:
  1.000  0.000  0.000  0.000  0.000
  0.000  1.000  0.000  0.000  0.000
  0.000  0.000  1.000  0.000  0.000
  0.000  0.000  0.000  1.000  0.000
  0.000  0.000  0.000  0.000  1.000
    occupations:
  1.000  0.000  0.000  0.000  0.000
  0.000  1.000  0.000  0.000  0.000
  0.000  0.000  1.000  0.000  0.000
  0.000  0.000  0.000  1.000  0.000
  0.000  0.000  0.000  0.000  1.000
atomic mag. moment =    -5.000000
atom    4   Tr[ns(na)] (up, down, total) =   5.00000  0.00000  5.00000
   spin  1
    eigenvalues: 
  1.000  1.000  1.000  1.000  1.000
    eigenvectors:
  1.000  0.000  0.000  0.000  0.000
  0.000  1.000  0.000  0.000  0.000
  0.000  0.000  1.000  0.000  0.000
  0.000  0.000  0.000  1.000  0.000
  0.000  0.000  0.000  0.000  1.000
    occupations:
  1.000  0.000  0.000  0.000  0.000
  0.000  1.000  0.000  0.000  0.000
  0.000  0.000  1.000  0.000  0.000
  0.000  0.000  0.000  1.000  0.000
  0.000  0.000  0.000  0.000  1.000
   spin  2
    eigenvalues: 
  0.000  0.000  0.000  0.000  0.000
    eigenvectors:
  1.000  0.000  0.000  0.000  0.000
  0.000  1.000  0.000  0.000  0.000
  0.000  0.000  1.000  0.000  0.000
  0.000  0.000  0.000  1.000  0.000
  0.000  0.000  0.000  0.000  1.000
    occupations:
  0.000  0.000  0.000  0.000  0.000
  0.000  0.000  0.000  0.000  0.000
  0.000  0.000  0.000  0.000  0.000
  0.000  0.000  0.000  0.000  0.000
  0.000  0.000  0.000  0.000  0.000
atomic mag. moment =     5.000000
atom    5   Tr[ns(na)] (up, down, total) =   0.00000  5.00000  5.00000
   spin  1
    eigenvalues: 
  0.000  0.000  0.000  0.000  0.000
    eigenvectors:
  1.000  0.000  0.000  0.000  0.000
  0.000  1.000  0.000  0.000  0.000
  0.000  0.000  1.000  0.000  0.000
  0.000  0.000  0.000  1.000  0.000
  0.000  0.000  0.000  0.000  1.000
    occupations:
  0.000  0.000  0.000  0.000  0.000
  0.000  0.000  0.000  0.000  0.000
  0.000  0.000  0.000  0.000  0.000
  0.000  0.000  0.000  0.000  0.000
  0.000  0.000  0.000  0.000  0.000
   spin  2
    eigenvalues: 
  1.000  1.000  1.000  1.000  1.000
    eigenvectors:
  1.000  0.000  0.000  0.000  0.000
  0.000  1.000  0.000  0.000  0.000
  0.000  0.000  1.000  0.000  0.000
  0.000  0.000  0.000  1.000  0.000
  0.000  0.000  0.000  0.000  1.000
    occupations:
  1.000  0.000  0.000  0.000  0.000
  0.000  1.000  0.000  0.000  0.000
  0.000  0.000  1.000  0.000  0.000
  0.000  0.000  0.000  1.000  0.000
  0.000  0.000  0.000  0.000  1.000
atomic mag. moment =    -5.000000
atom    6   Tr[ns(na)] (up, down, total) =   0.00000  5.00000  5.00000
   spin  1
    eigenvalues: 
  0.000  0.000  0.000  0.000  0.000
    eigenvectors:
  1.000  0.000  0.000  0.000  0.000
  0.000  1.000  0.000  0.000  0.000
  0.000  0.000  1.000  0.000  0.000
  0.000  0.000  0.000  1.000  0.000
  0.000  0.000  0.000  0.000  1.000
    occupations:
  0.000  0.000  0.000  0.000  0.000
  0.000  0.000  0.000  0.000  0.000
  0.000  0.000  0.000  0.000  0.000
  0.000  0.000  0.000  0.000  0.000
  0.000  0.000  0.000  0.000  0.000
   spin  2
    eigenvalues: 
  1.000  1.000  1.000  1.000  1.000
    eigenvectors:
  1.000  0.000  0.000  0.000  0.000
  0.000  1.000  0.000  0.000  0.000
  0.000  0.000  1.000  0.000  0.000
  0.000  0.000  0.000  1.000  0.000
  0.000  0.000  0.000  0.000  1.000
    occupations:
  1.000  0.000  0.000  0.000  0.000
  0.000  1.000  0.000  0.000  0.000
  0.000  0.000  1.000  0.000  0.000
  0.000  0.000  0.000  1.000  0.000
  0.000  0.000  0.000  0.000  1.000
atomic mag. moment =    -5.000000
atom    7   Tr[ns(na)] (up, down, total) =   0.00000  5.00000  5.00000
   spin  1
    eigenvalues: 
  0.000  0.000  0.000  0.000  0.000
    eigenvectors:
  1.000  0.000  0.000  0.000  0.000
  0.000  1.000  0.000  0.000  0.000
  0.000  0.000  1.000  0.000  0.000
  0.000  0.000  0.000  1.000  0.000
  0.000  0.000  0.000  0.000  1.000
    occupations:
  0.000  0.000  0.000  0.000  0.000
  0.000  0.000  0.000  0.000  0.000
  0.000  0.000  0.000  0.000  0.000
  0.000  0.000  0.000  0.000  0.000
  0.000  0.000  0.000  0.000  0.000
   spin  2
    eigenvalues: 
  1.000  1.000  1.000  1.000  1.000
    eigenvectors:
  1.000  0.000  0.000  0.000  0.000
  0.000  1.000  0.000  0.000  0.000
  0.000  0.000  1.000  0.000  0.000
  0.000  0.000  0.000  1.000  0.000
  0.000  0.000  0.000  0.000  1.000
    occupations:
  1.000  0.000  0.000  0.000  0.000
  0.000  1.000  0.000  0.000  0.000
  0.000  0.000  1.000  0.000  0.000
  0.000  0.000  0.000  1.000  0.000
  0.000  0.000  0.000  0.000  1.000
atomic mag. moment =    -5.000000
atom    8   Tr[ns(na)] (up, down, total) =   5.00000  0.00000  5.00000
   spin  1
    eigenvalues: 
  1.000  1.000  1.000  1.000  1.000
    eigenvectors:
  1.000  0.000  0.000  0.000  0.000
  0.000  1.000  0.000  0.000  0.000
  0.000  0.000  1.000  0.000  0.000
  0.000  0.000  0.000  1.000  0.000
  0.000  0.000  0.000  0.000  1.000
    occupations:
  1.000  0.000  0.000  0.000  0.000
  0.000  1.000  0.000  0.000  0.000
  0.000  0.000  1.000  0.000  0.000
  0.000  0.000  0.000  1.000  0.000
  0.000  0.000  0.000  0.000  1.000
   spin  2
    eigenvalues: 
  0.000  0.000  0.000  0.000  0.000
    eigenvectors:
  1.000  0.000  0.000  0.000  0.000
  0.000  1.000  0.000  0.000  0.000
  0.000  0.000  1.000  0.000  0.000
  0.000  0.000  0.000  1.000  0.000
  0.000  0.000  0.000  0.000  1.000
    occupations:
  0.000  0.000  0.000  0.000  0.000
  0.000  0.000  0.000  0.000  0.000
  0.000  0.000  0.000  0.000  0.000
  0.000  0.000  0.000  0.000  0.000
  0.000  0.000  0.000  0.000  0.000
atomic mag. moment =     5.000000
N of occupied +U levels =   40.000000
 --- exit write_ns ---
 Atomic wfc used for LDA+U Projector are NOT orthogonalized
     Starting wfcs are  224 randomized atomic wfcs
     Checking if some PAW data can be deallocated... 

     total cpu time spent up to now is       25.4 secs

     Self-consistent Calculation

     iteration #  1     ecut=    45.00 Ry     beta= 0.10
     Davidson diagonalization with overlap
     ethr =  1.00E-02,  avg # of iterations =  4.5
 --- enter write_ns ---
 LDA+U parameters:
U(  1) =   3.1200   J(  1) =   0.7000   B(  1) =   0.0803
U(  2) =   3.1200   J(  2) =   0.7000   B(  2) =   0.0803
atom    1   Tr[ns(na)] (up, down, total) =   5.01485  0.27466  5.28951
   spin  1
    eigenvalues: 
  1.003  1.003  1.003  1.003  1.004
    eigenvectors:
  0.001  0.000  0.002  0.997  0.000
  0.000  0.500  0.499  0.001  0.000
  0.000  0.500  0.499  0.001  0.000
  0.000  0.000  0.000  0.000  1.000
  0.999  0.000  0.000  0.001  0.000
    occupations:
  1.003 -0.000 -0.000 -0.000  0.000
 -0.000  1.003  0.000  0.000 -0.000
 -0.000  0.000  1.003 -0.000 -0.000
 -0.000  0.000 -0.000  1.004 -0.000
  0.000 -0.000 -0.000 -0.000  1.003
   spin  2
    eigenvalues: 
  0.041  0.052  0.053  0.056  0.072
    eigenvectors:
  0.000  0.973  0.000  0.024  0.003
  0.000  0.013  0.500  0.485  0.003
  0.000  0.013  0.500  0.485  0.003
  0.999  0.000  0.001  0.000  0.000
  0.000  0.002  0.000  0.007  0.992
    occupations:
  0.053  0.000  0.000 -0.000  0.001
  0.000  0.054  0.001 -0.000  0.001
  0.000  0.001  0.054  0.000  0.001
 -0.000 -0.000  0.000  0.041 -0.000
  0.001  0.001  0.001 -0.000  0.072
atomic mag. moment =     4.740190
atom    2   Tr[ns(na)] (up, down, total) =   5.01485  0.27466  5.28951
   spin  1
    eigenvalues: 
  1.003  1.003  1.003  1.003  1.004
    eigenvectors:
  0.001  0.000  0.002  0.997  0.000
  0.000  0.500  0.499  0.001  0.000
  0.000  0.500  0.499  0.001  0.000
  0.000  0.000  0.000  0.000  1.000
  0.999  0.000  0.000  0.001  0.000
    occupations:
  1.003 -0.000 -0.000 -0.000  0.000
 -0.000  1.003  0.000  0.000 -0.000
 -0.000  0.000  1.003 -0.000 -0.000
 -0.000  0.000 -0.000  1.004 -0.000
  0.000 -0.000 -0.000 -0.000  1.003
   spin  2
    eigenvalues: 
  0.041  0.052  0.053  0.056  0.072
    eigenvectors:
  0.000  0.973  0.000  0.024  0.003
  0.000  0.013  0.500  0.485  0.003
  0.000  0.013  0.500  0.485  0.003
  0.999  0.000  0.001  0.000  0.000
  0.000  0.002  0.000  0.007  0.992
    occupations:
  0.053  0.000  0.000 -0.000  0.001
  0.000  0.054  0.001 -0.000  0.001
  0.000  0.001  0.054  0.000  0.001
 -0.000 -0.000  0.000  0.041 -0.000
  0.001  0.001  0.001 -0.000  0.072
atomic mag. moment =     4.740190
atom    3   Tr[ns(na)] (up, down, total) =   0.27433  5.01490  5.28922
   spin  1
    eigenvalues: 
  0.041  0.051  0.055  0.055  0.072
    eigenvectors:
  0.000  0.978  0.020  0.000  0.002
  0.000  0.010  0.490  0.500  0.000
  0.000  0.010  0.490  0.500  0.000
  1.000  0.000  0.000  0.000  0.000
  0.000  0.002  0.000  0.000  0.998
    occupations:
  0.051  0.000  0.000 -0.000 -0.001
  0.000  0.055 -0.000 -0.000  0.000
  0.000 -0.000  0.055  0.000  0.000
 -0.000 -0.000  0.000  0.041 -0.000
 -0.001  0.000  0.000 -0.000  0.072
   spin  2
    eigenvalues: 
  1.003  1.003  1.003  1.003  1.004
    eigenvectors:
  0.000  0.000  0.000  1.000  0.000
  0.000  0.500  0.500  0.000  0.000
  0.000  0.500  0.500  0.000  0.000
  0.000  0.000  0.000  0.000  1.000
  1.000  0.000  0.000  0.000  0.000
    occupations:
  1.003  0.000  0.000 -0.000 -0.000
  0.000  1.003  0.000 -0.000 -0.000
  0.000  0.000  1.003  0.000 -0.000
 -0.000 -0.000  0.000  1.004 -0.000
 -0.000 -0.000 -0.000 -0.000  1.003
atomic mag. moment =    -4.740568
atom    4   Tr[ns(na)] (up, down, total) =   5.01475  0.27400  5.28875
   spin  1
    eigenvalues: 
  1.003  1.003  1.003  1.003  1.004
    eigenvectors:
  0.000  0.000  0.000  1.000  0.000
  0.000  0.500  0.500  0.000  0.000
  0.000  0.500  0.500  0.000  0.000
  0.000  0.000  0.000  0.000  1.000
  1.000  0.000  0.000  0.000  0.000
    occupations:
  1.003  0.000  0.000 -0.000 -0.000
  0.000  1.003  0.000 -0.000 -0.000
  0.000  0.000  1.003  0.000 -0.000
 -0.000 -0.000  0.000  1.004 -0.000
 -0.000 -0.000 -0.000 -0.000  1.003
   spin  2
    eigenvalues: 
  0.041  0.051  0.054  0.055  0.072
    eigenvectors:
  0.000  0.979  0.020  0.000  0.002
  0.000  0.010  0.490  0.500  0.000
  0.000  0.010  0.490  0.500  0.000
  1.000  0.000  0.000  0.000  0.000
  0.000  0.002  0.000  0.000  0.998
    occupations:
  0.051  0.000  0.000 -0.000 -0.001
  0.000  0.055 -0.000 -0.000  0.000
  0.000 -0.000  0.055  0.000  0.000
 -0.000 -0.000  0.000  0.041 -0.000
 -0.001  0.000  0.000 -0.000  0.072
atomic mag. moment =     4.740741
atom    5   Tr[ns(na)] (up, down, total) =   0.27504  5.01495  5.28999
   spin  1
    eigenvalues: 
  0.041  0.052  0.054  0.056  0.072
    eigenvectors:
  0.000  0.975  0.000  0.022  0.003
  0.001  0.011  0.499  0.486  0.002
  0.001  0.011  0.499  0.486  0.002
  0.999  0.000  0.001  0.000  0.000
  0.000  0.002  0.000  0.006  0.992
    occupations:
  0.053  0.000  0.000 -0.000  0.001
  0.000  0.055  0.001 -0.000  0.001
  0.000  0.001  0.055  0.000  0.001
 -0.000 -0.000  0.000  0.041 -0.000
  0.001  0.001  0.001 -0.000  0.072
   spin  2
    eigenvalues: 
  1.003  1.003  1.003  1.003  1.004
    eigenvectors:
  0.000  0.000  0.000  0.999  0.000
  0.001  0.499  0.500  0.000  0.000
  0.001  0.499  0.500  0.000  0.000
  0.000  0.000  0.000  0.000  1.000
  0.998  0.001  0.000  0.000  0.000
    occupations:
  1.003  0.000  0.000 -0.000  0.000
  0.000  1.003 -0.000  0.000  0.000
  0.000 -0.000  1.003 -0.000  0.000
 -0.000  0.000 -0.000  1.004 -0.000
  0.000  0.000  0.000 -0.000  1.003
atomic mag. moment =    -4.739911
atom    6   Tr[ns(na)] (up, down, total) =   0.27504  5.01495  5.28999
   spin  1
    eigenvalues: 
  0.041  0.052  0.054  0.056  0.072
    eigenvectors:
  0.000  0.975  0.000  0.022  0.003
  0.001  0.011  0.499  0.486  0.002
  0.001  0.011  0.499  0.486  0.002
  0.999  0.000  0.001  0.000  0.000
  0.000  0.002  0.000  0.006  0.992
    occupations:
  0.053  0.000  0.000 -0.000  0.001
  0.000  0.055  0.001 -0.000  0.001
  0.000  0.001  0.055  0.000  0.001
 -0.000 -0.000  0.000  0.041 -0.000
  0.001  0.001  0.001 -0.000  0.072
   spin  2
    eigenvalues: 
  1.003  1.003  1.003  1.003  1.004
    eigenvectors:
  0.000  0.000  0.000  0.999  0.000
  0.001  0.499  0.500  0.000  0.000
  0.001  0.499  0.500  0.000  0.000
  0.000  0.000  0.000  0.000  1.000
  0.998  0.001  0.000  0.000  0.000
    occupations:
  1.003  0.000  0.000 -0.000  0.000
  0.000  1.003 -0.000  0.000  0.000
  0.000 -0.000  1.003 -0.000  0.000
 -0.000  0.000 -0.000  1.004 -0.000
  0.000  0.000  0.000 -0.000  1.003
atomic mag. moment =    -4.739911
atom    7   Tr[ns(na)] (up, down, total) =   0.27433  5.01490  5.28922
   spin  1
    eigenvalues: 
  0.041  0.051  0.055  0.055  0.072
    eigenvectors:
  0.000  0.978  0.020  0.000  0.002
  0.000  0.010  0.490  0.500  0.000
  0.000  0.010  0.490  0.500  0.000
  1.000  0.000  0.000  0.000  0.000
  0.000  0.002  0.000  0.000  0.998
    occupations:
  0.051  0.000  0.000 -0.000 -0.001
  0.000  0.055 -0.000 -0.000  0.000
  0.000 -0.000  0.055  0.000  0.000
 -0.000 -0.000  0.000  0.041 -0.000
 -0.001  0.000  0.000 -0.000  0.072
   spin  2
    eigenvalues: 
  1.003  1.003  1.003  1.003  1.004
    eigenvectors:
  0.000  0.000  0.000  1.000  0.000
  0.000  0.500  0.500  0.000  0.000
  0.000  0.500  0.500  0.000  0.000
  0.000  0.000  0.000  0.000  1.000
  1.000  0.000  0.000  0.000  0.000
    occupations:
  1.003  0.000  0.000 -0.000 -0.000
  0.000  1.003  0.000 -0.000 -0.000
  0.000  0.000  1.003  0.000 -0.000
 -0.000 -0.000  0.000  1.004 -0.000
 -0.000 -0.000 -0.000 -0.000  1.003
atomic mag. moment =    -4.740568
atom    8   Tr[ns(na)] (up, down, total) =   5.01475  0.27400  5.28875
   spin  1
    eigenvalues: 
  1.003  1.003  1.003  1.003  1.004
    eigenvectors:
  0.000  0.000  0.000  1.000  0.000
  0.000  0.500  0.500  0.000  0.000
  0.000  0.500  0.500  0.000  0.000
  0.000  0.000  0.000  0.000  1.000
  1.000  0.000  0.000  0.000  0.000
    occupations:
  1.003  0.000  0.000 -0.000 -0.000
  0.000  1.003  0.000 -0.000 -0.000
  0.000  0.000  1.003  0.000 -0.000
 -0.000 -0.000  0.000  1.004 -0.000
 -0.000 -0.000 -0.000 -0.000  1.003
   spin  2
    eigenvalues: 
  0.041  0.051  0.054  0.055  0.072
    eigenvectors:
  0.000  0.979  0.020  0.000  0.002
  0.000  0.010  0.490  0.500  0.000
  0.000  0.010  0.490  0.500  0.000
  1.000  0.000  0.000  0.000  0.000
  0.000  0.002  0.000  0.000  0.998
    occupations:
  0.051  0.000  0.000 -0.000 -0.001
  0.000  0.055 -0.000 -0.000  0.000
  0.000 -0.000  0.055  0.000  0.000
 -0.000 -0.000  0.000  0.041 -0.000
 -0.001  0.000  0.000 -0.000  0.072
atomic mag. moment =     4.740741
N of occupied +U levels =   42.314950
 --- exit write_ns ---

     total cpu time spent up to now is       97.0 secs

     total energy              =  -14679.20339734 Ry
     Harris-Foulkes estimate   =  -14669.80528657 Ry
     estimated scf accuracy    <      21.28209518 Ry

     total magnetization       =    -0.00 Bohr mag/cell
     absolute magnetization    =    43.55 Bohr mag/cell

     iteration #  2     ecut=    45.00 Ry     beta= 0.10
     Davidson diagonalization with overlap
     ethr =  7.19E-03,  avg # of iterations =  1.0

     total cpu time spent up to now is      135.3 secs

     total energy              =  -14692.14747927 Ry
     Harris-Foulkes estimate   =  -14679.30818703 Ry
     estimated scf accuracy    <      17.16643090 Ry

     total magnetization       =     0.00 Bohr mag/cell
     absolute magnetization    =    43.12 Bohr mag/cell

     iteration #  3     ecut=    45.00 Ry     beta= 0.10
     Davidson diagonalization with overlap
     ethr =  5.80E-03,  avg # of iterations =  2.2

     total cpu time spent up to now is      181.7 secs

     total energy              =  -14693.82275698 Ry
     Harris-Foulkes estimate   =  -14693.74985157 Ry
     estimated scf accuracy    <       4.09074214 Ry

     total magnetization       =    -0.00 Bohr mag/cell
     absolute magnetization    =    39.31 Bohr mag/cell

     iteration #  4     ecut=    45.00 Ry     beta= 0.10
     Davidson diagonalization with overlap
     ethr =  1.38E-03,  avg # of iterations =  5.9

     total cpu time spent up to now is      251.3 secs

     total energy              =  -14693.42674248 Ry
     Harris-Foulkes estimate   =  -14693.86480992 Ry
     estimated scf accuracy    <       4.42018194 Ry

     total magnetization       =    -0.01 Bohr mag/cell
     absolute magnetization    =    39.08 Bohr mag/cell

     iteration #  5     ecut=    45.00 Ry     beta= 0.10
     Davidson diagonalization with overlap
     ethr =  1.38E-03,  avg # of iterations =  4.3

     total cpu time spent up to now is      316.7 secs

     total energy              =  -14693.87224381 Ry
     Harris-Foulkes estimate   =  -14693.83491767 Ry
     estimated scf accuracy    <       0.22867625 Ry

     total magnetization       =    -0.00 Bohr mag/cell
     absolute magnetization    =    38.16 Bohr mag/cell

     iteration #  6     ecut=    45.00 Ry     beta= 0.10
     Davidson diagonalization with overlap
     ethr =  7.73E-05,  avg # of iterations =  3.8

     total cpu time spent up to now is      398.1 secs

     total energy              =  -14693.97914424 Ry
     Harris-Foulkes estimate   =  -14693.94038617 Ry
     estimated scf accuracy    <       0.26519295 Ry

     total magnetization       =    -0.01 Bohr mag/cell
     absolute magnetization    =    37.12 Bohr mag/cell

     iteration #  7     ecut=    45.00 Ry     beta= 0.10
     Davidson diagonalization with overlap
     ethr =  7.73E-05,  avg # of iterations =  2.1

     total cpu time spent up to now is      445.0 secs

     total energy              =  -14693.87506968 Ry
     Harris-Foulkes estimate   =  -14694.01367254 Ry
     estimated scf accuracy    <       0.99125531 Ry

     total magnetization       =    -0.03 Bohr mag/cell
     absolute magnetization    =    36.90 Bohr mag/cell

     iteration #  8     ecut=    45.00 Ry     beta= 0.10
     Davidson diagonalization with overlap
     ethr =  7.73E-05,  avg # of iterations =  2.3

     total cpu time spent up to now is      500.4 secs

     total energy              =  -14693.92834642 Ry
     Harris-Foulkes estimate   =  -14693.93852205 Ry
     estimated scf accuracy    <       0.08906670 Ry

     total magnetization       =    -0.00 Bohr mag/cell
     absolute magnetization    =    37.02 Bohr mag/cell

     iteration #  9     ecut=    45.00 Ry     beta= 0.10
     Davidson diagonalization with overlap
     ethr =  3.01E-05,  avg # of iterations =  1.6

     total cpu time spent up to now is      541.8 secs

     total energy              =  -14693.93506309 Ry
     Harris-Foulkes estimate   =  -14693.93294722 Ry
     estimated scf accuracy    <       0.01782341 Ry

     total magnetization       =    -0.00 Bohr mag/cell
     absolute magnetization    =    37.03 Bohr mag/cell

     iteration # 10     ecut=    45.00 Ry     beta= 0.10
     Davidson diagonalization with overlap
     ethr =  6.02E-06,  avg # of iterations =  4.1

     total cpu time spent up to now is      601.7 secs

     total energy              =  -14693.93630238 Ry
     Harris-Foulkes estimate   =  -14693.93629032 Ry
     estimated scf accuracy    <       0.00784567 Ry

     total magnetization       =    -0.00 Bohr mag/cell
     absolute magnetization    =    36.94 Bohr mag/cell

     iteration # 11     ecut=    45.00 Ry     beta= 0.10
     Davidson diagonalization with overlap
     ethr =  2.65E-06,  avg # of iterations =  1.6

     total cpu time spent up to now is      642.9 secs

     total energy              =  -14693.93630202 Ry
     Harris-Foulkes estimate   =  -14693.93654632 Ry
     estimated scf accuracy    <       0.00363746 Ry

     total magnetization       =    -0.00 Bohr mag/cell
     absolute magnetization    =    36.93 Bohr mag/cell

     iteration # 12     ecut=    45.00 Ry     beta= 0.10
     Davidson diagonalization with overlap
     ethr =  1.23E-06,  avg # of iterations =  3.5

     total cpu time spent up to now is      717.7 secs

     total energy              =  -14693.93729381 Ry
     Harris-Foulkes estimate   =  -14693.93764087 Ry
     estimated scf accuracy    <       0.00125758 Ry

     total magnetization       =     0.00 Bohr mag/cell
     absolute magnetization    =    36.87 Bohr mag/cell

     iteration # 13     ecut=    45.00 Ry     beta= 0.10
     Davidson diagonalization with overlap
     ethr =  4.25E-07,  avg # of iterations =  2.0

     total cpu time spent up to now is      762.4 secs

     total energy              =  -14693.93743918 Ry
     Harris-Foulkes estimate   =  -14693.93741447 Ry
     estimated scf accuracy    <       0.00008884 Ry

     total magnetization       =     0.00 Bohr mag/cell
     absolute magnetization    =    36.87 Bohr mag/cell

     iteration # 14     ecut=    45.00 Ry     beta= 0.10
     Davidson diagonalization with overlap
     ethr =  3.00E-08,  avg # of iterations =  3.0

     total cpu time spent up to now is      822.9 secs

     total energy              =  -14693.93746706 Ry
     Harris-Foulkes estimate   =  -14693.93745026 Ry
     estimated scf accuracy    <       0.00002087 Ry

     total magnetization       =    -0.00 Bohr mag/cell
     absolute magnetization    =    36.86 Bohr mag/cell

     iteration # 15     ecut=    45.00 Ry     beta= 0.10
     Davidson diagonalization with overlap
     ethr =  7.05E-09,  avg # of iterations =  3.0

     total cpu time spent up to now is      872.7 secs

     total energy              =  -14693.93747461 Ry
     Harris-Foulkes estimate   =  -14693.93746588 Ry
     estimated scf accuracy    <       0.00000938 Ry

     total magnetization       =    -0.00 Bohr mag/cell
     absolute magnetization    =    36.86 Bohr mag/cell

     iteration # 16     ecut=    45.00 Ry     beta= 0.10
     Davidson diagonalization with overlap
     ethr =  3.17E-09,  avg # of iterations =  2.0

     total cpu time spent up to now is      918.3 secs

     total energy              =  -14693.93748150 Ry
     Harris-Foulkes estimate   =  -14693.93747403 Ry
     estimated scf accuracy    <       0.00000462 Ry

     total magnetization       =     0.00 Bohr mag/cell
     absolute magnetization    =    36.85 Bohr mag/cell

     iteration # 17     ecut=    45.00 Ry     beta= 0.10
     Davidson diagonalization with overlap
     ethr =  1.56E-09,  avg # of iterations =  2.1

     total cpu time spent up to now is      963.6 secs

     total energy              =  -14693.93748896 Ry
     Harris-Foulkes estimate   =  -14693.93748373 Ry
     estimated scf accuracy    <       0.00000177 Ry

     total magnetization       =     0.00 Bohr mag/cell
     absolute magnetization    =    36.85 Bohr mag/cell

     iteration # 18     ecut=    45.00 Ry     beta= 0.10
     Davidson diagonalization with overlap
     ethr =  5.98E-10,  avg # of iterations =  3.0
 
     Magnetic moment per site:
     atom:    1    charge:   13.5378    magn:    4.2387    constr:    0.0000
     atom:    2    charge:   13.5378    magn:    4.2387    constr:    0.0000
     atom:    3    charge:   13.5397    magn:   -4.2206    constr:    0.0000
     atom:    4    charge:   13.5397    magn:    4.2206    constr:    0.0000
     atom:    5    charge:   13.5378    magn:   -4.2387    constr:    0.0000
     atom:    6    charge:   13.5378    magn:   -4.2387    constr:    0.0000
     atom:    7    charge:   13.5397    magn:   -4.2206    constr:    0.0000
     atom:    8    charge:   13.5397    magn:    4.2206    constr:    0.0000
     atom:    9    charge:    9.0905    magn:   -0.0066    constr:    0.0000
     atom:   10    charge:    9.0905    magn:   -0.0066    constr:    0.0000
     atom:   11    charge:    9.0924    magn:   -0.0535    constr:    0.0000
     atom:   12    charge:    9.0922    magn:    0.0044    constr:    0.0000
     atom:   13    charge:    9.0905    magn:    0.0066    constr:    0.0000
     atom:   14    charge:    9.0905    magn:    0.0066    constr:    0.0000
     atom:   15    charge:    9.0924    magn:    0.0535    constr:    0.0000
     atom:   16    charge:    9.0922    magn:   -0.0044    constr:    0.0000
     atom:   17    charge:    9.0905    magn:    0.0066    constr:    0.0000
     atom:   18    charge:    9.0905    magn:    0.0066    constr:    0.0000
     atom:   19    charge:    9.0924    magn:   -0.0535    constr:    0.0000
     atom:   20    charge:    9.0922    magn:    0.0044    constr:    0.0000
     atom:   21    charge:    9.0905    magn:   -0.0066    constr:    0.0000
     atom:   22    charge:    9.0905    magn:   -0.0066    constr:    0.0000
     atom:   23    charge:    9.0922    magn:   -0.0044    constr:    0.0000
     atom:   24    charge:    9.0924    magn:    0.0535    constr:    0.0000

     total cpu time spent up to now is     1013.2 secs

     End of self-consistent calculation
 --- enter write_ns ---
 LDA+U parameters:
U(  1) =   3.1200   J(  1) =   0.7000   B(  1) =   0.0803
U(  2) =   3.1200   J(  2) =   0.7000   B(  2) =   0.0803
atom    1   Tr[ns(na)] (up, down, total) =   4.96924  0.73498  5.70422
   spin  1
    eigenvalues: 
  0.985  0.993  0.993  0.997  1.002
    eigenvectors:
  0.000  0.068  0.000  0.932  0.000
  0.004  0.462  0.500  0.034  0.000
  0.004  0.462  0.500  0.034  0.000
  0.000  0.000  0.000  0.000  1.000
  0.991  0.008  0.000  0.000  0.000
    occupations:
  0.997 -0.001 -0.001 -0.000  0.000
 -0.001  0.993 -0.000 -0.000 -0.001
 -0.001 -0.000  0.993  0.000 -0.001
 -0.000 -0.000  0.000  1.002 -0.000
  0.000 -0.001 -0.001 -0.000  0.985
   spin  2
    eigenvalues: 
  0.070  0.128  0.140  0.155  0.241
    eigenvectors:
  0.000  0.992  0.000  0.008  0.000
  0.000  0.004  0.500  0.491  0.005
  0.000  0.004  0.500  0.491  0.005
  0.999  0.000  0.001  0.000  0.000
  0.000  0.000  0.000  0.009  0.990
    occupations:
  0.128 -0.002 -0.002 -0.000  0.001
 -0.002  0.148  0.008 -0.001  0.006
 -0.002  0.008  0.148  0.001  0.006
 -0.000 -0.001  0.001  0.070 -0.000
  0.001  0.006  0.006 -0.000  0.241
atomic mag. moment =     4.234266
atom    2   Tr[ns(na)] (up, down, total) =   4.96924  0.73498  5.70422
   spin  1
    eigenvalues: 
  0.985  0.993  0.993  0.997  1.002
    eigenvectors:
  0.000  0.068  0.000  0.932  0.000
  0.004  0.462  0.500  0.034  0.000
  0.004  0.462  0.500  0.034  0.000
  0.000  0.000  0.000  0.000  1.000
  0.991  0.008  0.000  0.000  0.000
    occupations:
  0.997 -0.001 -0.001 -0.000  0.000
 -0.001  0.993 -0.000 -0.000 -0.001
 -0.001 -0.000  0.993  0.000 -0.001
 -0.000 -0.000  0.000  1.002 -0.000
  0.000 -0.001 -0.001 -0.000  0.985
   spin  2
    eigenvalues: 
  0.070  0.128  0.140  0.155  0.241
    eigenvectors:
  0.000  0.992  0.000  0.008  0.000
  0.000  0.004  0.500  0.491  0.005
  0.000  0.004  0.500  0.491  0.005
  0.999  0.000  0.001  0.000  0.000
  0.000  0.000  0.000  0.009  0.990
    occupations:
  0.128 -0.002 -0.002 -0.000  0.001
 -0.002  0.148  0.008 -0.001  0.006
 -0.002  0.008  0.148  0.001  0.006
 -0.000 -0.001  0.001  0.070 -0.000
  0.001  0.006  0.006 -0.000  0.241
atomic mag. moment =     4.234266
atom    3   Tr[ns(na)] (up, down, total) =   0.74772  4.96672  5.71444
   spin  1
    eigenvalues: 
  0.069  0.126  0.146  0.153  0.253
    eigenvectors:
  0.000  0.870  0.000  0.119  0.011
  0.000  0.064  0.500  0.426  0.010
  0.000  0.064  0.500  0.426  0.010
  0.999  0.000  0.001  0.000  0.000
  0.000  0.002  0.000  0.028  0.969
    occupations:
  0.131  0.007  0.007  0.000 -0.011
  0.007  0.149  0.003  0.001 -0.009
  0.007  0.003  0.149 -0.001 -0.009
  0.000  0.001 -0.001  0.069 -0.000
 -0.011 -0.009 -0.009 -0.000  0.250
   spin  2
    eigenvalues: 
  0.984  0.991  0.994  0.997  1.001
    eigenvectors:
  0.004  0.000  0.016  0.980  0.000
  0.000  0.500  0.492  0.008  0.000
  0.000  0.500  0.492  0.008  0.000
  0.000  0.000  0.000  0.000  1.000
  0.996  0.000  0.000  0.003  0.000
    occupations:
  0.997  0.000  0.000 -0.000  0.001
  0.000  0.992  0.001 -0.000 -0.000
  0.000  0.001  0.992  0.000 -0.000
 -0.000 -0.000  0.000  1.001 -0.000
  0.001 -0.000 -0.000 -0.000  0.984
atomic mag. moment =    -4.218992
atom    4   Tr[ns(na)] (up, down, total) =   4.96672  0.74771  5.71443
   spin  1
    eigenvalues: 
  0.984  0.991  0.994  0.997  1.001
    eigenvectors:
  0.004  0.000  0.016  0.980  0.000
  0.000  0.500  0.492  0.008  0.000
  0.000  0.500  0.492  0.008  0.000
  0.000  0.000  0.000  0.000  1.000
  0.996  0.000  0.000  0.003  0.000
    occupations:
  0.997  0.000  0.000 -0.000  0.001
  0.000  0.992  0.001 -0.000 -0.000
  0.000  0.001  0.992  0.000 -0.000
 -0.000 -0.000  0.000  1.001 -0.000
  0.001 -0.000 -0.000 -0.000  0.984
   spin  2
    eigenvalues: 
  0.069  0.126  0.146  0.153  0.253
    eigenvectors:
  0.000  0.870  0.000  0.119  0.011
  0.000  0.064  0.500  0.426  0.010
  0.000  0.064  0.500  0.426  0.010
  0.999  0.000  0.001  0.000  0.000
  0.000  0.002  0.000  0.028  0.969
    occupations:
  0.131  0.007  0.007  0.000 -0.011
  0.007  0.149  0.003  0.001 -0.009
  0.007  0.003  0.149 -0.001 -0.009
  0.000  0.001 -0.001  0.069 -0.000
 -0.011 -0.009 -0.009 -0.000  0.250
atomic mag. moment =     4.219006
atom    5   Tr[ns(na)] (up, down, total) =   0.73501  4.96925  5.70425
   spin  1
    eigenvalues: 
  0.070  0.128  0.140  0.155  0.241
    eigenvectors:
  0.000  0.992  0.000  0.008  0.000
  0.000  0.004  0.500  0.491  0.005
  0.000  0.004  0.500  0.491  0.005
  0.999  0.000  0.001  0.000  0.000
  0.000  0.000  0.000  0.009  0.990
    occupations:
  0.128 -0.002 -0.002 -0.000  0.001
 -0.002  0.148  0.008 -0.001  0.006
 -0.002  0.008  0.148  0.001  0.006
 -0.000 -0.001  0.001  0.070 -0.000
  0.001  0.006  0.006 -0.000  0.241
   spin  2
    eigenvalues: 
  0.985  0.993  0.993  0.997  1.002
    eigenvectors:
  0.000  0.068  0.000  0.932  0.000
  0.004  0.462  0.500  0.034  0.000
  0.004  0.462  0.500  0.034  0.000
  0.000  0.000  0.000  0.000  1.000
  0.991  0.008  0.000  0.000  0.000
    occupations:
  0.997 -0.001 -0.001 -0.000  0.000
 -0.001  0.993 -0.000 -0.000 -0.001
 -0.001 -0.000  0.993  0.000 -0.001
 -0.000 -0.000  0.000  1.002 -0.000
  0.000 -0.001 -0.001 -0.000  0.985
atomic mag. moment =    -4.234242
atom    6   Tr[ns(na)] (up, down, total) =   0.73501  4.96925  5.70425
   spin  1
    eigenvalues: 
  0.070  0.128  0.140  0.155  0.241
    eigenvectors:
  0.000  0.992  0.000  0.008  0.000
  0.000  0.004  0.500  0.491  0.005
  0.000  0.004  0.500  0.491  0.005
  0.999  0.000  0.001  0.000  0.000
  0.000  0.000  0.000  0.009  0.990
    occupations:
  0.128 -0.002 -0.002 -0.000  0.001
 -0.002  0.148  0.008 -0.001  0.006
 -0.002  0.008  0.148  0.001  0.006
 -0.000 -0.001  0.001  0.070 -0.000
  0.001  0.006  0.006 -0.000  0.241
   spin  2
    eigenvalues: 
  0.985  0.993  0.993  0.997  1.002
    eigenvectors:
  0.000  0.068  0.000  0.932  0.000
  0.004  0.462  0.500  0.034  0.000
  0.004  0.462  0.500  0.034  0.000
  0.000  0.000  0.000  0.000  1.000
  0.991  0.008  0.000  0.000  0.000
    occupations:
  0.997 -0.001 -0.001 -0.000  0.000
 -0.001  0.993 -0.000 -0.000 -0.001
 -0.001 -0.000  0.993  0.000 -0.001
 -0.000 -0.000  0.000  1.002 -0.000
  0.000 -0.001 -0.001 -0.000  0.985
atomic mag. moment =    -4.234242
atom    7   Tr[ns(na)] (up, down, total) =   0.74772  4.96672  5.71444
   spin  1
    eigenvalues: 
  0.069  0.126  0.146  0.153  0.253
    eigenvectors:
  0.000  0.870  0.000  0.119  0.011
  0.000  0.064  0.500  0.426  0.010
  0.000  0.064  0.500  0.426  0.010
  0.999  0.000  0.001  0.000  0.000
  0.000  0.002  0.000  0.028  0.969
    occupations:
  0.131  0.007  0.007  0.000 -0.011
  0.007  0.149  0.003  0.001 -0.009
  0.007  0.003  0.149 -0.001 -0.009
  0.000  0.001 -0.001  0.069 -0.000
 -0.011 -0.009 -0.009 -0.000  0.250
   spin  2
    eigenvalues: 
  0.984  0.991  0.994  0.997  1.001
    eigenvectors:
  0.004  0.000  0.016  0.980  0.000
  0.000  0.500  0.492  0.008  0.000
  0.000  0.500  0.492  0.008  0.000
  0.000  0.000  0.000  0.000  1.000
  0.996  0.000  0.000  0.003  0.000
    occupations:
  0.997  0.000  0.000 -0.000  0.001
  0.000  0.992  0.001 -0.000 -0.000
  0.000  0.001  0.992  0.000 -0.000
 -0.000 -0.000  0.000  1.001 -0.000
  0.001 -0.000 -0.000 -0.000  0.984
atomic mag. moment =    -4.218992
atom    8   Tr[ns(na)] (up, down, total) =   4.96672  0.74771  5.71443
   spin  1
    eigenvalues: 
  0.984  0.991  0.994  0.997  1.001
    eigenvectors:
  0.004  0.000  0.016  0.980  0.000
  0.000  0.500  0.492  0.008  0.000
  0.000  0.500  0.492  0.008  0.000
  0.000  0.000  0.000  0.000  1.000
  0.996  0.000  0.000  0.003  0.000
    occupations:
  0.997  0.000  0.000 -0.000  0.001
  0.000  0.992  0.001 -0.000 -0.000
  0.000  0.001  0.992  0.000 -0.000
 -0.000 -0.000  0.000  1.001 -0.000
  0.001 -0.000 -0.000 -0.000  0.984
   spin  2
    eigenvalues: 
  0.069  0.126  0.146  0.153  0.253
    eigenvectors:
  0.000  0.870  0.000  0.119  0.011
  0.000  0.064  0.500  0.426  0.010
  0.000  0.064  0.500  0.426  0.010
  0.999  0.000  0.001  0.000  0.000
  0.000  0.002  0.000  0.028  0.969
    occupations:
  0.131  0.007  0.007  0.000 -0.011
  0.007  0.149  0.003  0.001 -0.009
  0.007  0.003  0.149 -0.001 -0.009
  0.000  0.001 -0.001  0.069 -0.000
 -0.011 -0.009 -0.009 -0.000  0.250
atomic mag. moment =     4.219006
N of occupied +U levels =   45.674679
 --- exit write_ns ---

 ------ SPIN UP ------------


          k = 0.0000 0.0000 0.0000 ( 13629 PWs)   bands (ev):

   -66.4489 -66.4489 -66.4211 -66.4211 -61.8627 -61.8627 -61.8514 -61.8514
   -35.2136 -35.2135 -35.1909 -35.1909 -35.1853 -35.1852 -35.1712 -35.1688
   -35.1663 -35.1642 -35.1269 -35.1267 -30.6937 -30.6935 -30.6922 -30.6922
   -30.6852 -30.6831 -30.6809 -30.6783 -30.6773 -30.6773 -30.6726 -30.6723
     5.9666   7.6165   7.6181   8.1383   8.1474   8.4107   8.4806   8.5278
     8.7055   8.7095   9.1411   9.1615   9.3628   9.4225   9.4292   9.4640
     9.5034   9.5662   9.5705   9.5884   9.5925   9.6153   9.6314   9.6483
     9.6948   9.7158   9.8430   9.8715   9.9394   9.9560   9.9719   9.9793
    10.0069  10.0145  10.0199  10.0855  10.1724  10.1885  10.2255  10.2341
    10.2489  10.2666  10.2736  10.3264  10.3295  10.4225  10.4457  10.4770
    10.5071  10.5216  10.5549  10.5801  10.6071  10.7175  10.7642  10.7750
    10.8683  10.9189  10.9443  11.0706  11.0883  11.1001  11.1007  11.1485
    11.3288  11.3318  11.3378  11.3715  11.4179  11.5751  11.6608  11.6701
    11.7999  11.8217  11.8260  11.8284  11.8969  11.9063  11.9296  11.9558
    12.0179  12.1352  12.1861  12.1988  12.2723  12.3133  12.3374  12.3599
    12.3983  12.3991  12.4299  12.4364  12.5141  12.5252  12.5395  12.5868
    12.6760  12.6941  12.7042  12.7045  12.7615  12.8559  13.0413  13.0941
    13.1320  13.1417  13.2134  13.2774  13.2784  14.1435  14.3881  15.0877
    15.0915  15.1428  15.4219  15.8646  16.0867  16.4420  16.6937  16.8225
    16.8810  16.8881  16.9709  17.1245  17.1727  17.3206  17.3379  17.3916
    17.4408  17.4921  17.6889  17.7324  17.8439  17.9185  17.9921  18.1663
    18.5453  18.7211  19.3600  19.4074  19.4091  19.4446  19.5044  19.5137
    19.5550  19.8521

          k = 0.0000 0.0000-0.5441 ( 13704 PWs)   bands (ev):

   -66.4489 -66.4489 -66.4211 -66.4211 -61.8627 -61.8627 -61.8515 -61.8514
   -35.2136 -35.2135 -35.1910 -35.1909 -35.1853 -35.1852 -35.1712 -35.1688
   -35.1663 -35.1642 -35.1269 -35.1267 -30.6938 -30.6935 -30.6922 -30.6922
   -30.6851 -30.6830 -30.6809 -30.6783 -30.6774 -30.6774 -30.6725 -30.6722
     6.5559   7.6210   8.1350   8.1423   8.4579   8.4692   8.7171   8.7584
     8.8345   8.8796   8.9599   8.9987   9.0361   9.0629   9.0841   9.1349
     9.1700   9.2668   9.2783   9.4339   9.6071   9.6498   9.6553   9.6645
     9.7175   9.7197   9.7223   9.7267   9.7628   9.8451   9.8937   9.8987
     9.9421   9.9424   9.9789   9.9994  10.0022  10.0274  10.1044  10.1140
    10.1786  10.2699  10.3264  10.3928  10.4237  10.4588  10.5068  10.5157
    10.5868  10.5980  10.6103  10.6148  10.7505  10.8620  10.8741  10.9203
    10.9274  10.9312  10.9957  11.0881  11.1772  11.2088  11.2614  11.4235
    11.4875  11.5235  11.6057  11.6160  11.6887  11.7138  11.7782  11.7884
    11.8359  11.8468  11.8790  11.9097  11.9246  11.9469  11.9724  11.9994
    12.0307  12.0439  12.0821  12.1429  12.1761  12.2402  12.2545  12.2706
    12.3612  12.3962  12.4455  12.4626  12.4780  12.5212  12.5924  12.6552
    12.6644  12.7011  12.7803  12.7900  12.8085  12.8235  12.8760  12.9272
    13.0466  13.1014  13.3809  13.4376  13.9741  13.9890  14.0674  14.0710
    14.1127  14.6782  14.9674  15.4579  15.6244  15.6301  16.5619  16.9389
    16.9516  17.0067  17.0368  17.0770  17.2458  17.2715  17.3024  17.3546
    17.3819  17.5626  17.5903  17.6670  17.7427  17.8771  17.8776  17.9572
    17.9654  18.3770  18.5205  18.6799  19.2954  19.3501  19.4194  19.4225
    19.4390  19.5749

          k = 0.0000 0.0000 1.0883 ( 13706 PWs)   bands (ev):

   -66.4489 -66.4489 -66.4211 -66.4211 -61.8627 -61.8627 -61.8514 -61.8514
   -35.2137 -35.2135 -35.1911 -35.1909 -35.1853 -35.1852 -35.1712 -35.1688
   -35.1663 -35.1641 -35.1269 -35.1267 -30.6939 -30.6936 -30.6922 -30.6922
   -30.6850 -30.6830 -30.6808 -30.6783 -30.6775 -30.6774 -30.6725 -30.6722
     7.7905   8.0998   8.1338   8.3982   8.4519   8.5006   8.5303   8.6417
     8.7028   8.7120   8.7678   8.9827   8.9830   9.0183   9.0884   9.1634
     9.2123   9.2165   9.2971   9.4633   9.4695   9.5284   9.5284   9.6026
     9.6246   9.6901   9.7121   9.7600   9.7737   9.8275   9.8684   9.9148
     9.9450   9.9552   9.9689   9.9910  10.0317  10.0713  10.0896  10.1457
    10.1517  10.1908  10.2323  10.2420  10.2468  10.2646  10.2806  10.3156
    10.3766  10.3808  10.4793  10.4968  10.5323  10.6798  10.7301  10.7584
    10.7968  10.9261  11.0161  11.0682  11.0954  11.2115  11.3317  11.3468
    11.4342  11.4830  11.5714  11.6179  11.6568  11.8139  11.8203  11.8302
    11.8323  11.8492  11.9109  11.9436  11.9508  12.0363  12.1129  12.1868
    12.2470  12.2711  12.3132  12.3329  12.3565  12.3601  12.4191  12.4857
    12.5027  12.5173  12.5268  12.5796  12.6326  12.6484  12.6973  12.7014
    12.7523  12.7549  12.8588  12.9398  13.0033  13.1010  13.1128  13.1548
    13.2739  13.2744  13.2755  13.3038  13.3545  13.3781  13.5481  13.5892
    14.1463  14.6525  15.0858  15.0958  15.1438  15.6470  16.1120  16.7789
    16.9051  16.9608  16.9897  17.0929  17.1825  17.2596  17.3224  17.3795
    17.4282  17.5251  17.5490  17.5738  17.6355  17.6614  17.8497  17.9036
    17.9717  18.1642  18.3988  18.5070  18.5275  19.2258  19.2527  19.3023
    19.3635  19.3747

          k =-0.1768-0.1768-0.1360 ( 13673 PWs)   bands (ev):

   -66.4489 -66.4489 -66.4213 -66.4208 -61.8627 -61.8627 -61.8517 -61.8512
   -35.2136 -35.2135 -35.1909 -35.1909 -35.1853 -35.1852 -35.1712 -35.1688
   -35.1663 -35.1642 -35.1269 -35.1267 -30.6937 -30.6935 -30.6922 -30.6922
   -30.6851 -30.6831 -30.6809 -30.6783 -30.6774 -30.6772 -30.6726 -30.6723
     6.1280   7.3120   7.7494   7.7554   8.4713   8.4934   8.5083   8.6547
     8.6897   8.8447   9.1974   9.2558   9.2594   9.3314   9.3650   9.3675
     9.3922   9.4419   9.4920   9.5161   9.5469   9.6079   9.6645   9.6748
     9.6842   9.6868   9.7399   9.7894   9.8807   9.9566  10.0129  10.0204
    10.0330  10.0874  10.0903  10.1260  10.1431  10.1934  10.2108  10.2295
    10.2729  10.3091  10.3598  10.4056  10.4064  10.4435  10.4773  10.5132
    10.5322  10.5861  10.6457  10.6461  10.7048  10.7210  10.7965  10.8483
    10.9094  10.9441  10.9780  11.0075  11.0342  11.0806  11.0900  11.1434
    11.2650  11.3098  11.3382  11.3948  11.4777  11.5347  11.6207  11.6358
    11.6635  11.7332  11.7447  11.7811  11.8049  11.8523  11.9024  11.9224
    11.9596  12.0038  12.0484  12.1306  12.1364  12.2236  12.2312  12.2399
    12.3045  12.3496  12.3496  12.3758  12.4794  12.4794  12.5527  12.6212
    12.6518  12.7154  12.7325  12.7333  12.8367  12.8461  12.8900  13.0209
    13.0298  13.0810  13.3150  14.0686  14.2105  14.4155  14.6739  15.1219
    15.1909  15.3854  15.5864  15.7681  15.9120  16.3288  16.5338  16.6380
    16.7960  16.9969  17.0046  17.0324  17.2473  17.2588  17.3065  17.3874
    17.4430  17.5106  17.6268  17.7111  17.8466  17.8872  18.0120  18.1814
    18.4329  18.5489  18.8771  18.8941  18.9072  18.9752  19.0377  19.3071
    19.3725  19.8866

          k =-0.1768-0.1768-0.6802 ( 13666 PWs)   bands (ev):

   -66.4489 -66.4489 -66.4213 -66.4208 -61.8627 -61.8627 -61.8517 -61.8512
   -35.2136 -35.2135 -35.1910 -35.1909 -35.1853 -35.1852 -35.1712 -35.1688
   -35.1663 -35.1642 -35.1269 -35.1267 -30.6938 -30.6935 -30.6922 -30.6922
   -30.6851 -30.6830 -30.6809 -30.6783 -30.6775 -30.6773 -30.6725 -30.6723
     6.9541   7.0603   8.3377   8.3409   8.4215   8.4263   8.6368   8.7920
     8.8435   8.8868   8.9326   8.9486   8.9900   8.9993   9.1612   9.1778
     9.2439   9.4062   9.4198   9.4591   9.4631   9.5438   9.5776   9.6526
     9.6701   9.6716   9.6999   9.7698   9.8016   9.8144   9.8228   9.8402
     9.9023   9.9464   9.9497   9.9824  10.0121  10.0463  10.1128  10.1926
    10.2760  10.3568  10.3745  10.4182  10.4387  10.4564  10.4854  10.5486
    10.5963  10.6209  10.6603  10.6879  10.7497  10.8035  10.8798  10.9130
    10.9214  11.0160  11.0372  11.1143  11.1196  11.1705  11.1966  11.2639
    11.3948  11.4009  11.4219  11.5255  11.5865  11.6595  11.6754  11.7108
    11.7197  11.7597  11.7986  11.8463  11.8676  11.9095  11.9326  11.9510
    11.9974  12.0517  12.0527  12.1375  12.1766  12.2145  12.2496  12.3032
    12.3579  12.3728  12.3993  12.4418  12.4858  12.5181  12.5521  12.5836
    12.6311  12.6585  12.7129  12.7861  12.8394  12.8645  12.9180  13.0091
    13.0789  13.1413  13.6477  13.7139  13.9066  14.2639  14.4715  14.7420
    14.7902  14.8370  15.3831  15.4103  15.7523  16.0040  16.3624  16.3851
    16.4114  16.5129  17.0833  17.1648  17.1730  17.1951  17.3444  17.3640
    17.4433  17.4796  17.5180  17.6097  17.7173  17.7321  17.8097  17.9990
    18.1207  18.2747  18.3395  18.4494  18.4498  18.7627  19.0845  19.3741
    20.2097  20.5493

          k =-0.1768-0.1768 0.9522 ( 13713 PWs)   bands (ev):

   -66.4489 -66.4489 -66.4213 -66.4209 -61.8627 -61.8627 -61.8516 -61.8512
   -35.2137 -35.2135 -35.1910 -35.1909 -35.1853 -35.1852 -35.1712 -35.1688
   -35.1663 -35.1642 -35.1269 -35.1267 -30.6939 -30.6936 -30.6922 -30.6922
   -30.6850 -30.6830 -30.6809 -30.6783 -30.6775 -30.6774 -30.6725 -30.6723
     7.6614   7.8060   8.2975   8.4961   8.5088   8.5326   8.6354   8.6478
     8.6524   8.7185   8.8198   8.8449   8.8886   9.0129   9.0322   9.1528
     9.1720   9.2456   9.2721   9.3926   9.4038   9.4158   9.4582   9.4648
     9.6032   9.6558   9.6912   9.7044   9.7418   9.7690   9.8451   9.8846
     9.8972   9.9141   9.9285   9.9911  10.0353  10.0545  10.1130  10.1555
    10.1670  10.2415  10.3081  10.3281  10.3852  10.4059  10.4144  10.4444
    10.5342  10.5399  10.5824  10.7032  10.7593  10.7689  10.8061  10.9133
    10.9299  11.0017  11.0843  11.1034  11.1559  11.2398  11.3594  11.4010
    11.4782  11.4805  11.5394  11.6318  11.6718  11.8534  11.8651  11.9096
    11.9131  11.9263  11.9487  11.9674  11.9769  12.0917  12.1073  12.1292
    12.1657  12.2238  12.2354  12.2726  12.3045  12.3466  12.3647  12.3870
    12.4314  12.4419  12.4827  12.5364  12.5807  12.6034  12.6247  12.7257
    12.7441  12.8405  12.8613  12.8622  12.9062  12.9486  12.9581  13.0154
    13.0475  13.1752  13.2180  13.2654  13.4981  13.5081  13.7106  13.8131
    13.8562  14.0393  14.7907  14.7998  15.3271  15.9623  16.0572  16.1234
    16.3396  16.9227  17.1031  17.1368  17.2055  17.2905  17.2988  17.3948
    17.4476  17.4733  17.5249  17.5358  17.5724  17.7107  17.8049  17.8901
    18.1658  18.1742  18.2658  18.6948  18.9768  19.0030  19.1971  19.2640
    19.6375  19.8311

          k =-0.1768-0.1768 0.4081 ( 13683 PWs)   bands (ev):

   -66.4489 -66.4489 -66.4213 -66.4209 -61.8627 -61.8627 -61.8516 -61.8512
   -35.2136 -35.2135 -35.1910 -35.1909 -35.1853 -35.1852 -35.1712 -35.1688
   -35.1663 -35.1642 -35.1269 -35.1267 -30.6938 -30.6936 -30.6922 -30.6922
   -30.6851 -30.6830 -30.6809 -30.6783 -30.6775 -30.6773 -30.6725 -30.6723
     6.4234   8.0024   8.0111   8.1359   8.3335   8.5056   8.5346   8.7007
     8.7212   8.7557   8.9231   8.9929   9.0854   9.1339   9.1426   9.1673
     9.2472   9.2615   9.3170   9.3927   9.5014   9.5823   9.5871   9.6222
     9.6444   9.6867   9.7294   9.7647   9.8292   9.8319   9.8648   9.8772
     9.9266   9.9640   9.9847  10.0233  10.0957  10.0982  10.1392  10.2096
    10.2318  10.2968  10.3094  10.3649  10.3787  10.4721  10.5169  10.5198
    10.5626  10.6325  10.7383  10.7824  10.8735  10.8910  10.9120  10.9138
    10.9525  10.9772  11.0786  11.2622  11.2902  11.2978  11.3508  11.3757
    11.4501  11.4673  11.6104  11.6633  11.6879  11.7242  11.7607  11.8103
    11.8418  11.9058  11.9301  11.9515  11.9835  12.0143  12.0252  12.0261
    12.1194  12.1590  12.1825  12.1907  12.2140  12.2403  12.2450  12.2880
    12.3054  12.3145  12.3582  12.4146  12.4624  12.4790  12.5527  12.5958
    12.6187  12.6396  12.7527  12.7538  12.7914  12.7992  12.8453  12.8950
    12.9051  13.0780  13.2803  13.2971  13.3888  13.4207  13.9187  13.9308
    14.3997  14.7718  15.1560  15.4141  15.6260  15.7746  16.4818  16.6577
    16.7487  16.8861  17.0980  17.1648  17.1935  17.3147  17.3653  17.3833
    17.3888  17.5187  17.6119  17.6996  17.7094  17.8653  17.9784  18.1197
    18.1330  18.5113  18.5848  18.5946  18.9157  19.1517  19.1580  19.5107
    20.0090  20.2445

          k = 0.3536 0.3536 0.2721 ( 13708 PWs)   bands (ev):

   -66.4489 -66.4489 -66.4214 -66.4207 -61.8627 -61.8627 -61.8518 -61.8511
   -35.2136 -35.2135 -35.1909 -35.1909 -35.1853 -35.1852 -35.1712 -35.1688
   -35.1663 -35.1642 -35.1268 -35.1268 -30.6937 -30.6935 -30.6922 -30.6922
   -30.6851 -30.6831 -30.6809 -30.6783 -30.6774 -30.6772 -30.6725 -30.6724
     6.5438   6.6525   8.0132   8.1103   8.1134   8.2237   8.6862   8.7647
     8.8328   8.9394   9.0621   9.1251   9.2854   9.3203   9.3352   9.3368
     9.4274   9.4303   9.5006   9.5246   9.5363   9.5665   9.5933   9.6140
     9.6372   9.6773   9.7213   9.7427   9.8418   9.8888   9.9846   9.9893
    10.0128  10.0594  10.1240  10.1889  10.2092  10.2295  10.2607  10.3166
    10.3272  10.3276  10.3432  10.4096  10.4451  10.4768  10.5498  10.5607
    10.5761  10.5981  10.6190  10.6594  10.7747  10.7993  10.8976  10.9057
    10.9106  10.9865  11.0215  11.0385  11.0665  11.1685  11.1924  11.2265
    11.3126  11.3160  11.3234  11.3334  11.3438  11.3774  11.5361  11.5375
    11.5980  11.6136  11.6512  11.6602  11.7403  11.7470  11.7843  11.8328
    11.9289  11.9534  12.0299  12.0414  12.1091  12.1383  12.1679  12.2455
    12.2484  12.2576  12.3259  12.3817  12.4073  12.4437  12.5731  12.5828
    12.6029  12.6429  12.6948  12.7106  12.7790  12.9236  13.0041  13.0057
    13.0224  13.0624  13.8375  14.5003  14.5370  14.7644  15.1530  15.4117
    15.4207  15.5516  15.7035  15.7594  15.9400  16.0075  16.0386  16.3341
    16.7042  17.0376  17.1075  17.1301  17.1839  17.2407  17.3627  17.3763
    17.4853  17.5550  17.5593  17.6456  17.7049  17.7697  17.9052  18.1214
    18.1766  18.2492  18.3498  18.4449  18.4903  18.6004  18.8071  19.3142
    19.8712  19.8894

          k = 0.3536 0.3536-0.2721 ( 13700 PWs)   bands (ev):

   -66.4489 -66.4489 -66.4214 -66.4207 -61.8627 -61.8627 -61.8518 -61.8511
   -35.2136 -35.2135 -35.1910 -35.1909 -35.1853 -35.1852 -35.1712 -35.1688
   -35.1663 -35.1642 -35.1268 -35.1268 -30.6938 -30.6936 -30.6922 -30.6922
   -30.6851 -30.6830 -30.6809 -30.6783 -30.6775 -30.6773 -30.6725 -30.6723
     6.5953   7.6195   8.1070   8.1130   8.4433   8.6061   8.6194   8.6784
     8.7515   8.7576   8.9201   8.9745   9.0053   9.0624   9.0930   9.2766
     9.3668   9.3760   9.3904   9.4221   9.4404   9.4985   9.5667   9.5785
     9.5861   9.6082   9.6604   9.7398   9.7588   9.8445   9.8733   9.8770
     9.9762   9.9764   9.9902   9.9972  10.0942  10.1888  10.2145  10.2608
    10.2863  10.3185  10.3785  10.4016  10.4240  10.4796  10.4908  10.5558
    10.6040  10.6419  10.6808  10.7536  10.8065  10.8799  10.9404  10.9642
    10.9932  11.0198  11.0829  11.1225  11.1968  11.2207  11.3051  11.3325
    11.3728  11.4246  11.5211  11.5541  11.5652  11.6411  11.6552  11.7082
    11.7445  11.8143  11.8356  11.8694  11.9036  11.9313  11.9903  12.0005
    12.0441  12.0642  12.0936  12.1536  12.1631  12.2292  12.2323  12.2791
    12.2825  12.2825  12.3374  12.3947  12.4585  12.4747  12.5913  12.6065
    12.6125  12.6323  12.7029  12.7741  12.8256  12.8345  12.9116  12.9916
    13.0836  13.1068  13.2200  13.3740  13.8038  13.8512  14.1651  14.9256
    14.9853  15.0409  15.3365  15.3441  15.6839  15.7308  16.2109  16.3535
    16.4367  16.5203  17.1471  17.1641  17.2624  17.3165  17.3634  17.3651
    17.4321  17.4499  17.6104  17.6568  17.7189  17.7430  17.9015  17.9335
    18.1205  18.3443  18.3518  18.4049  18.5718  19.0024  19.1030  19.9362
    20.0065  20.1242

          k = 0.3536 0.3536 1.3603 ( 13692 PWs)   bands (ev):

   -66.4489 -66.4489 -66.4214 -66.4208 -61.8627 -61.8627 -61.8517 -61.8511
   -35.2137 -35.2135 -35.1910 -35.1910 -35.1853 -35.1852 -35.1712 -35.1688
   -35.1663 -35.1642 -35.1268 -35.1268 -30.6939 -30.6936 -30.6922 -30.6922
   -30.6850 -30.6830 -30.6809 -30.6783 -30.6776 -30.6773 -30.6724 -30.6723
     7.5646   7.6724   8.3311   8.5119   8.5532   8.5841   8.6201   8.6358
     8.6363   8.7528   8.8275   8.8798   8.8852   8.9927   9.0038   9.0043
     9.1744   9.2072   9.2451   9.3112   9.3569   9.3618   9.4366   9.4539
     9.5258   9.5680   9.5915   9.7166   9.7654   9.7721   9.8108   9.8575
     9.9200   9.9222   9.9439   9.9740   9.9942   9.9943  10.1220  10.2024
    10.2027  10.2682  10.2953  10.3668  10.4188  10.4317  10.5418  10.5590
    10.6072  10.6075  10.7473  10.7745  10.8617  10.9154  10.9483  11.0069
    11.0771  11.1504  11.1811  11.3395  11.3449  11.3585  11.5131  11.5489
    11.5515  11.7454  11.7587  11.7712  11.7845  11.8463  11.8601  11.8898
    11.9355  11.9399  11.9676  11.9749  12.0023  12.0599  12.0652  12.0665
    12.0812  12.1232  12.1621  12.1890  12.2300  12.2588  12.2785  12.2824
    12.3017  12.3211  12.3470  12.3889  12.4109  12.4667  12.5171  12.6862
    12.7054  12.7284  12.7361  12.7743  12.8471  12.8575  12.8830  13.0106
    13.0335  13.0628  13.2178  13.2829  13.4121  13.4861  13.5219  13.7823
    14.0479  14.1809  14.9022  14.9791  15.0177  15.1020  15.4899  16.1365
    16.3803  16.9030  17.0276  17.1901  17.2506  17.3376  17.3678  17.3905
    17.4477  17.4484  17.5123  17.5281  17.5632  17.7162  17.8291  17.9378
    18.0409  18.1334  18.4486  18.7111  18.8467  19.2167  19.4898  19.9196
    19.9562  20.1469

          k = 0.1768-0.1768 0.0000 ( 13644 PWs)   bands (ev):

   -66.4492 -66.4487 -66.4211 -66.4211 -61.8630 -61.8625 -61.8514 -61.8514
   -35.2136 -35.2135 -35.1909 -35.1909 -35.1854 -35.1851 -35.1712 -35.1688
   -35.1663 -35.1642 -35.1269 -35.1267 -30.6938 -30.6934 -30.6923 -30.6921
   -30.6852 -30.6831 -30.6809 -30.6783 -30.6773 -30.6773 -30.6726 -30.6723
     6.0903   7.0041   8.0690   8.1993   8.2123   8.4331   8.5237   8.5653
     8.6324   8.6352   9.0463   9.1017   9.2491   9.3914   9.4403   9.5052
     9.5082   9.5244   9.5576   9.5935   9.6074   9.6341   9.6425   9.6868
     9.6883   9.7770   9.8244   9.8245   9.8360   9.9120   9.9321   9.9567
     9.9898  10.0129  10.1008  10.1010  10.1350  10.1677  10.2045  10.2369
    10.2553  10.2592  10.2879  10.3594  10.4241  10.4329  10.5018  10.5184
    10.5619  10.5672  10.5921  10.6625  10.6726  10.7475  10.7599  10.8674
    10.9212  10.9226  11.0329  11.0808  11.1177  11.1445  11.1751  11.1797
    11.3190  11.3470  11.3498  11.4049  11.4649  11.5563  11.6496  11.7038
    11.7101  11.7948  11.8069  11.8301  11.8798  11.8875  11.9437  11.9512
    11.9781  12.1138  12.1701  12.2094  12.2298  12.2680  12.2824  12.2882
    12.3087  12.3576  12.3737  12.4029  12.4375  12.5187  12.6031  12.6439
    12.6681  12.6844  12.7075  12.7650  12.8006  12.8187  12.8525  12.8896
    12.9152  13.0852  13.1276  13.2869  13.8049  13.8953  14.6404  14.9307
    15.2259  15.4621  15.5434  15.9484  16.1036  16.4287  16.4969  16.6041
    16.8202  16.8766  16.9412  17.0085  17.1642  17.2450  17.3923  17.4152
    17.4691  17.5085  17.6535  17.7003  17.7548  17.9999  18.0531  18.2267
    18.3250  18.3957  18.7279  18.8913  19.0321  19.2882  19.5938  19.6638
    19.8871  20.0066

          k = 0.1768-0.1768-0.5441 ( 13695 PWs)   bands (ev):

   -66.4492 -66.4487 -66.4211 -66.4211 -61.8630 -61.8625 -61.8514 -61.8514
   -35.2136 -35.2135 -35.1910 -35.1909 -35.1854 -35.1851 -35.1712 -35.1688
   -35.1663 -35.1642 -35.1269 -35.1267 -30.6939 -30.6935 -30.6923 -30.6921
   -30.6851 -30.6830 -30.6809 -30.6783 -30.6774 -30.6774 -30.6725 -30.6722
     6.6711   7.5344   7.7228   8.3306   8.5096   8.5782   8.7212   8.8023
     8.8278   8.8492   8.9591   9.0050   9.0287   9.0624   9.1093   9.1904
     9.2104   9.2761   9.2840   9.3494   9.4844   9.5319   9.5500   9.5890
     9.6189   9.6327   9.6721   9.7324   9.7646   9.8075   9.8143   9.8394
     9.8849   9.9349  10.0039  10.0383  10.0464  10.1871  10.1928  10.2363
    10.2723  10.3755  10.3954  10.4247  10.4712  10.5057  10.5718  10.6194
    10.6364  10.6727  10.7240  10.7703  10.8190  10.9043  10.9127  10.9540
    10.9783  11.0091  11.0608  11.0935  11.1190  11.2242  11.2584  11.3475
    11.4452  11.4998  11.5130  11.5607  11.6007  11.6168  11.6674  11.7401
    11.7666  11.8063  11.8345  11.9032  11.9428  11.9602  11.9715  12.0008
    12.0093  12.0453  12.0893  12.1374  12.1804  12.2425  12.2466  12.2744
    12.2870  12.3322  12.4044  12.4187  12.4610  12.5242  12.5282  12.5521
    12.6251  12.6580  12.6832  12.7412  12.8340  12.9169  12.9717  13.0252
    13.0855  13.2257  13.2772  13.4525  13.5664  13.7057  14.0156  14.4489
    14.6203  14.9842  15.0771  15.4525  15.6291  15.8190  16.0856  16.5843
    16.6569  16.8143  17.1331  17.1559  17.2755  17.3189  17.3317  17.3875
    17.4273  17.5415  17.5732  17.5825  17.7217  17.7800  17.8518  18.0388
    18.2374  18.3719  18.6068  18.7787  18.9954  19.0645  19.1548  19.3997
    19.8052  20.0726

          k = 0.1768-0.1768 1.0883 ( 13696 PWs)   bands (ev):

   -66.4492 -66.4487 -66.4211 -66.4211 -61.8630 -61.8625 -61.8514 -61.8514
   -35.2136 -35.2135 -35.1911 -35.1909 -35.1854 -35.1851 -35.1712 -35.1688
   -35.1663 -35.1642 -35.1269 -35.1267 -30.6939 -30.6936 -30.6923 -30.6921
   -30.6851 -30.6830 -30.6809 -30.6783 -30.6775 -30.6774 -30.6725 -30.6722
     7.8717   8.1712   8.1946   8.4284   8.4568   8.5150   8.5445   8.6019
     8.6139   8.6265   8.6781   8.8141   8.8947   8.9619   9.0961   9.1212
     9.2165   9.3496   9.4220   9.4814   9.4898   9.5196   9.5774   9.5986
     9.6156   9.6469   9.6661   9.6968   9.7494   9.7940   9.8124   9.8347
     9.9081   9.9380   9.9919  10.0014  10.0437  10.0562  10.0870  10.1334
    10.1621  10.1704  10.2127  10.2341  10.2661  10.2967  10.3223  10.3796
    10.4225  10.4517  10.5394  10.6167  10.6440  10.7391  10.7570  10.7770
    10.7955  10.8399  11.0536  11.1701  11.2355  11.2755  11.2906  11.3897
    11.4821  11.5183  11.6125  11.6409  11.6992  11.7728  11.7963  11.8096
    11.8282  11.8556  11.9044  11.9374  11.9423  12.0508  12.0599  12.1501
    12.1726  12.2250  12.2455  12.2918  12.3154  12.3472  12.3540  12.3994
    12.4601  12.4685  12.5060  12.5223  12.5469  12.5998  12.6538  12.6658
    12.7181  12.7516  12.8254  12.8611  12.8812  12.9448  12.9541  13.0802
    13.1023  13.1279  13.1585  13.3098  13.6956  13.7935  13.9972  14.0607
    14.5611  14.7202  14.9427  15.2714  15.4595  15.6091  15.6844  16.3247
    16.6314  16.8282  16.9244  17.0561  17.1412  17.2411  17.3193  17.3827
    17.4318  17.4997  17.5320  17.5589  17.5752  17.6773  17.7951  17.8634
    18.0161  18.1862  18.1889  18.3240  18.4533  18.5247  18.8955  19.0739
    19.2972  19.5497

          k = 0.0000-0.3536-0.1360 ( 13676 PWs)   bands (ev):

   -66.4492 -66.4487 -66.4213 -66.4208 -61.8630 -61.8624 -61.8517 -61.8512
   -35.2136 -35.2135 -35.1909 -35.1909 -35.1854 -35.1851 -35.1712 -35.1688
   -35.1663 -35.1642 -35.1269 -35.1267 -30.6938 -30.6934 -30.6923 -30.6921
   -30.6852 -30.6831 -30.6809 -30.6783 -30.6774 -30.6772 -30.6726 -30.6723
     6.2502   7.1501   7.4118   8.0932   8.2067   8.5340   8.6365   8.7038
     8.8208   8.8675   9.1466   9.1779   9.2147   9.3269   9.3506   9.3662
     9.3850   9.4239   9.4568   9.5031   9.5307   9.5650   9.6108   9.6379
     9.7187   9.7277   9.7760   9.8326   9.9072   9.9526   9.9674   9.9859
    10.0083  10.0572  10.0633  10.1225  10.1727  10.1863  10.2067  10.2819
    10.3118  10.3327  10.3847  10.4053  10.4409  10.4703  10.4926  10.5388
    10.5995  10.6288  10.6832  10.7137  10.7727  10.7993  10.8364  10.8810
    10.9067  10.9481  10.9524  11.0468  11.0998  11.1411  11.1688  11.1800
    11.2489  11.3306  11.3661  11.3898  11.4074  11.5190  11.5616  11.6321
    11.6571  11.7173  11.7339  11.7701  11.7942  11.8158  11.8600  11.8873
    11.9604  12.0102  12.0543  12.0745  12.1755  12.1784  12.2171  12.2429
    12.2578  12.2804  12.3467  12.3821  12.4000  12.4585  12.5331  12.5728
    12.6281  12.7076  12.7215  12.7896  12.8093  12.8482  12.9245  13.0102
    13.0946  13.2764  13.3654  13.7790  13.8173  14.4980  14.6945  15.0860
    15.2728  15.5571  15.7429  15.8521  15.8833  16.1124  16.2515  16.6598
    16.7801  16.9039  17.0326  17.0909  17.1517  17.2726  17.3208  17.4336
    17.4450  17.5022  17.5680  17.7334  17.7887  17.9406  18.0477  18.2248
    18.2409  18.5079  18.5804  18.6409  18.9715  19.0717  19.3785  19.5731
    19.6573  20.0781

          k = 0.0000-0.3536-0.6802 ( 13702 PWs)   bands (ev):

   -66.4492 -66.4487 -66.4213 -66.4208 -61.8630 -61.8625 -61.8517 -61.8512
   -35.2136 -35.2135 -35.1910 -35.1909 -35.1854 -35.1851 -35.1712 -35.1688
   -35.1663 -35.1642 -35.1269 -35.1267 -30.6939 -30.6935 -30.6923 -30.6921
   -30.6851 -30.6830 -30.6809 -30.6783 -30.6775 -30.6773 -30.6725 -30.6723
     7.0617   7.1685   7.8531   7.9327   8.5866   8.6804   8.8150   8.8339
     8.8862   8.9599   8.9730   8.9833   9.0133   9.0387   9.1498   9.1909
     9.2447   9.2983   9.3199   9.3880   9.4226   9.4323   9.4762   9.5492
     9.6155   9.6281   9.6565   9.6788   9.7097   9.7608   9.8016   9.8553
     9.9328   9.9679  10.0793  10.0943  10.1061  10.1772  10.2404  10.3026
    10.3153  10.3616  10.3883  10.4221  10.4603  10.4722  10.5529  10.6108
    10.6558  10.6869  10.7378  10.7619  10.8100  10.8492  10.8794  10.9143
    10.9267  10.9869  11.0401  11.0790  11.1558  11.2169  11.2513  11.2606
    11.3083  11.3749  11.4405  11.4805  11.5132  11.5431  11.5962  11.6484
    11.7177  11.7376  11.8018  11.8301  11.8453  11.9088  11.9382  11.9631
    12.0029  12.0582  12.0732  12.1550  12.1820  12.2080  12.2196  12.2644
    12.3236  12.3342  12.3446  12.3861  12.4101  12.5015  12.5843  12.6020
    12.6477  12.6667  12.6903  12.7491  12.8316  12.9413  13.0013  13.0563
    13.1057  13.4100  13.6141  13.6604  13.9167  13.9659  14.3283  14.6345
    14.7647  15.0853  15.3816  15.4471  15.6199  15.9240  16.0997  16.1329
    16.4207  16.8838  16.9648  17.2004  17.2329  17.3288  17.3503  17.4125
    17.4402  17.5127  17.5411  17.6341  17.7237  17.7765  17.8088  17.9947
    18.1030  18.2153  18.3148  18.4772  18.6815  19.1223  19.4334  19.5501
    19.9224  20.1229

          k = 0.0000-0.3536 0.9522 ( 13693 PWs)   bands (ev):

   -66.4492 -66.4487 -66.4213 -66.4209 -61.8630 -61.8625 -61.8516 -61.8512
   -35.2136 -35.2135 -35.1910 -35.1909 -35.1854 -35.1851 -35.1712 -35.1688
   -35.1663 -35.1642 -35.1269 -35.1267 -30.6940 -30.6936 -30.6923 -30.6921
   -30.6851 -30.6830 -30.6809 -30.6783 -30.6775 -30.6774 -30.6725 -30.6723
     7.7437   7.8714   8.3306   8.3418   8.3914   8.5651   8.5724   8.5911
     8.6677   8.7405   8.8148   8.8857   8.9028   8.9863   9.0652   9.1438
     9.2279   9.2679   9.3226   9.3818   9.3867   9.4266   9.4457   9.4777
     9.5492   9.6149   9.6315   9.6805   9.7535   9.7684   9.7719   9.7976
     9.8363   9.9091   9.9227  10.0092  10.0370  10.0688  10.0954  10.1358
    10.1699  10.2457  10.2722  10.3398  10.4043  10.4434  10.4754  10.5317
    10.5791  10.5946  10.6589  10.7410  10.7836  10.8320  10.8636  10.9099
    10.9823  11.0028  11.1009  11.1813  11.2075  11.3266  11.3499  11.4175
    11.4750  11.5109  11.6058  11.6841  11.7347  11.7628  11.8214  11.8338
    11.8770  11.9211  11.9386  11.9875  12.0001  12.0338  12.0659  12.1120
    12.1384  12.1646  12.2132  12.2230  12.2770  12.2999  12.3277  12.3632
    12.3700  12.4238  12.4376  12.4422  12.5160  12.5686  12.5801  12.6332
    12.6723  12.7193  12.8311  12.8564  12.8866  12.9451  12.9803  13.0155
    13.0637  13.1265  13.1634  13.3688  13.5666  13.6948  13.7830  13.9232
    14.0278  14.3555  14.9319  15.1580  15.4726  15.5822  15.6716  16.2038
    16.6473  16.6885  16.9182  17.1708  17.2215  17.2723  17.2968  17.3307
    17.4525  17.4747  17.5039  17.5163  17.5419  17.6389  17.7890  17.9252
    18.0552  18.1454  18.2070  18.3240  18.5289  18.6258  18.7539  19.2784
    19.5809  20.0713

          k = 0.0000-0.3536 0.4081 ( 13687 PWs)   bands (ev):

   -66.4492 -66.4487 -66.4213 -66.4209 -61.8630 -61.8625 -61.8516 -61.8512
   -35.2136 -35.2135 -35.1910 -35.1909 -35.1854 -35.1851 -35.1712 -35.1688
   -35.1663 -35.1642 -35.1269 -35.1267 -30.6939 -30.6935 -30.6923 -30.6921
   -30.6851 -30.6830 -30.6809 -30.6783 -30.6775 -30.6773 -30.6725 -30.6723
     6.5409   7.4118   8.2246   8.3402   8.4434   8.4799   8.5616   8.6078
     8.7314   8.7904   8.9660   9.0188   9.0872   9.1263   9.1568   9.2008
     9.2046   9.2787   9.3326   9.3633   9.4651   9.5258   9.5625   9.5962
     9.6267   9.6480   9.6603   9.7016   9.7133   9.7575   9.8375   9.8699
     9.9002   9.9739   9.9975  10.0242  10.0468  10.0995  10.1721  10.1974
    10.2768  10.3546  10.4173  10.4433  10.4949  10.5182  10.5595  10.6814
    10.7091  10.7331  10.7832  10.8272  10.8909  10.9153  10.9391  10.9569
    10.9979  11.0563  11.1006  11.1493  11.2145  11.2811  11.3325  11.4138
    11.4579  11.5045  11.5351  11.6370  11.6749  11.6865  11.7316  11.7656
    11.8182  11.8789  11.8966  11.9517  11.9641  11.9719  12.0165  12.0336
    12.0612  12.1078  12.1446  12.1788  12.2032  12.2201  12.2555  12.2786
    12.2904  12.3315  12.3526  12.3728  12.4334  12.5356  12.5399  12.5720
    12.5895  12.6479  12.6897  12.7425  12.7654  12.7946  12.8280  12.8770
    12.8963  12.9429  13.0169  13.0482  13.1285  14.1654  14.2086  14.3554
    14.6122  14.8345  15.0039  15.3302  15.6585  15.7910  16.3117  16.4641
    16.6082  16.8648  16.9171  17.1896  17.2058  17.2930  17.3115  17.4107
    17.4364  17.4650  17.5695  17.6292  17.7122  17.8411  17.9401  17.9985
    18.2335  18.3112  18.5185  18.6813  18.9082  19.0059  19.1701  19.5269
    20.0737  20.2719

          k = 0.5303 0.1768 0.2721 ( 13658 PWs)   bands (ev):

   -66.4492 -66.4487 -66.4215 -66.4207 -61.8630 -61.8624 -61.8518 -61.8510
   -35.2136 -35.2135 -35.1909 -35.1909 -35.1854 -35.1851 -35.1712 -35.1688
   -35.1663 -35.1642 -35.1268 -35.1268 -30.6938 -30.6934 -30.6923 -30.6921
   -30.6852 -30.6831 -30.6809 -30.6783 -30.6774 -30.6772 -30.6725 -30.6724
     6.6619   6.7658   7.5120   7.6011   8.4506   8.5988   8.7159   8.8271
     8.8868   8.9581   9.1008   9.1328   9.2779   9.2844   9.2927   9.3179
     9.3581   9.3768   9.3957   9.4703   9.4963   9.5408   9.5723   9.5741
     9.6788   9.6877   9.6976   9.8366   9.8504   9.9040   9.9458   9.9683
    10.0013  10.0706  10.1909  10.2069  10.2119  10.2362  10.2449  10.2877
    10.3497  10.3678  10.3899  10.4490  10.5026  10.5354  10.5372  10.5677
    10.6612  10.6827  10.7079  10.7757  10.7859  10.8362  10.8607  10.9027
    10.9220  10.9831  11.0347  11.0438  11.1332  11.1915  11.1959  11.2007
    11.2833  11.2923  11.3171  11.3532  11.3714  11.3822  11.4186  11.4562
    11.4937  11.5982  11.6474  11.6724  11.7242  11.7905  11.8100  11.8184
    11.8583  11.9645  11.9692  12.0253  12.1410  12.1677  12.1947  12.2346
    12.2394  12.2566  12.3018  12.4017  12.4224  12.4425  12.5122  12.5671
    12.6099  12.7003  12.7238  12.8124  12.8332  12.9419  12.9606  12.9693
    13.0079  13.2029  13.8065  14.3547  14.4876  14.6663  14.7196  15.0247
    15.3801  15.5062  15.6519  15.7774  15.8528  15.9230  16.1542  16.5210
    16.8282  16.9513  17.0567  17.0915  17.2549  17.3030  17.3165  17.4453
    17.5309  17.5319  17.6286  17.6345  17.8550  17.8636  17.8747  18.1139
    18.2466  18.2788  18.3032  18.4938  18.5387  18.6463  19.6875  20.0501
    20.1116  20.1212

          k = 0.5303 0.1768-0.2721 ( 13683 PWs)   bands (ev):

   -66.4492 -66.4487 -66.4214 -66.4207 -61.8630 -61.8625 -61.8518 -61.8511
   -35.2136 -35.2135 -35.1910 -35.1909 -35.1854 -35.1851 -35.1712 -35.1688
   -35.1663 -35.1642 -35.1268 -35.1268 -30.6939 -30.6935 -30.6923 -30.6921
   -30.6851 -30.6830 -30.6809 -30.6783 -30.6775 -30.6773 -30.6725 -30.6723
     6.7112   7.5550   7.6944   8.2502   8.5120   8.5235   8.6506   8.7774
     8.7954   8.8893   8.9478   8.9869   9.0331   9.0702   9.1202   9.2386
     9.2938   9.3267   9.3588   9.3777   9.4315   9.4564   9.5014   9.5179
     9.6128   9.6406   9.6542   9.7233   9.7462   9.7687   9.8087   9.8621
     9.9325   9.9849  10.0261  10.0822  10.1403  10.2093  10.2339  10.2705
    10.2894  10.3113  10.3272  10.4010  10.4581  10.4926  10.5446  10.6406
    10.7315  10.7441  10.7680  10.7980  10.8704  10.8847  10.9078  10.9900
    11.0531  11.0582  11.1105  11.1366  11.1899  11.2101  11.2745  11.3354
    11.3540  11.4048  11.4298  11.5340  11.5758  11.6025  11.6563  11.7068
    11.7127  11.7520  11.8331  11.8419  11.8911  11.9312  11.9652  12.0067
    12.0149  12.0707  12.0886  12.1541  12.1792  12.2169  12.2269  12.2511
    12.2784  12.3051  12.3365  12.3830  12.4077  12.4846  12.5582  12.5844
    12.6323  12.6488  12.6857  12.7304  12.7912  12.8644  12.9516  12.9568
    13.0319  13.2287  13.3128  13.3803  13.7310  13.9435  14.1099  14.6585
[...]
    11.7129  11.8500  11.8542  11.8576  11.8617  11.8798  11.9022  11.9996
    12.0060  12.0387  12.1212  12.1411  12.1488  12.1794  12.2288  12.2446
    12.2568  12.2708  12.2764  12.2941  12.4020  12.4385  12.5425  12.5656
    12.5974  12.6784  12.7334  12.7507  12.7590  12.7948  12.8209  12.8517
    12.8638  12.8689  12.9931  13.1148  14.0956  14.4761  14.5836  15.1219
    15.4762  15.5768  15.7725  15.7963  16.0062  16.0411  16.1835  16.4225
    16.7492  16.8572  16.9642  17.1017  17.1424  17.2400  17.3350  17.4249
    17.4872  17.5226  17.5440  17.6251  17.7581  17.9749  18.1708  18.1944
    18.4050  18.4861  18.5682  18.6492  18.7215  19.2608  19.4017  19.9729
    20.0504  20.0727

          k =-0.3536 0.3536-0.5441 ( 13686 PWs)   bands (ev):

   -66.4494 -66.4487 -66.4211 -66.4211 -61.8630 -61.8623 -61.8514 -61.8514
   -35.2137 -35.2137 -35.1910 -35.1909 -35.1856 -35.1852 -35.1713 -35.1689
   -35.1664 -35.1642 -35.1270 -35.1267 -30.6937 -30.6934 -30.6922 -30.6920
   -30.6851 -30.6829 -30.6808 -30.6783 -30.6774 -30.6773 -30.6725 -30.6722
     6.9708   7.0507   7.9520   8.0582   8.5772   8.6813   8.7115   8.7550
     8.8006   8.8648   9.0383   9.0477   9.0762   9.1447   9.1644   9.2097
     9.2262   9.2566   9.2927   9.3071   9.3100   9.3900   9.4256   9.4797
     9.5147   9.5931   9.6893   9.6972   9.7431   9.7785   9.7935   9.8314
     9.9122   9.9189  10.0396  10.0665  10.1072  10.1882  10.2203  10.2978
    10.3395  10.3512  10.4757  10.4853  10.5110  10.5819  10.6760  10.7500
    10.7811  10.8366  10.8860  10.8961  10.9220  10.9572  10.9889  11.0197
    11.0504  11.0532  11.0920  11.1441  11.1602  11.1883  11.2844  11.3064
    11.3622  11.3721  11.4026  11.4968  11.5428  11.5600  11.5726  11.5999
    11.6767  11.7773  11.8044  11.8045  11.8686  11.9116  11.9230  11.9294
    11.9915  12.0159  12.0785  12.1363  12.1876  12.2144  12.2278  12.2570
    12.2954  12.3636  12.3770  12.4001  12.4055  12.4345  12.4656  12.5522
    12.6325  12.6471  12.6793  12.7196  12.8138  12.8921  12.9720  12.9816
    12.9961  13.1968  13.5059  13.5331  13.7081  13.8537  14.0438  14.4524
    14.6187  14.7940  15.3231  15.6814  15.7562  15.9113  15.9257  16.3323
    16.4519  16.5248  17.1490  17.2181  17.3014  17.3223  17.4070  17.4079
    17.4443  17.5541  17.6161  17.6317  17.6456  17.8150  17.8546  18.2104
    18.2138  18.3426  18.4553  18.4957  18.5931  18.9698  19.3089  19.3333
    20.2714  20.4057

          k =-0.3536 0.3536 1.0883 ( 13708 PWs)   bands (ev):

   -66.4494 -66.4487 -66.4211 -66.4211 -61.8629 -61.8623 -61.8514 -61.8514
   -35.2137 -35.2137 -35.1911 -35.1909 -35.1856 -35.1852 -35.1713 -35.1689
   -35.1664 -35.1642 -35.1269 -35.1267 -30.6938 -30.6934 -30.6922 -30.6920
   -30.6850 -30.6829 -30.6808 -30.6783 -30.6774 -30.6774 -30.6724 -30.6722
     8.0725   8.1492   8.3075   8.3457   8.3691   8.4736   8.5082   8.5661
     8.6212   8.6293   8.7650   8.7756   8.8653   8.8729   8.9709   9.0791
     9.1674   9.1963   9.4798   9.5073   9.5418   9.5501   9.5575   9.6271
     9.6395   9.6578   9.6951   9.7272   9.7459   9.7504   9.8144   9.9054
     9.9057   9.9237   9.9363   9.9868  10.0414  10.0491  10.1102  10.1105
    10.1131  10.1303  10.1620  10.2192  10.2853  10.3200  10.3421  10.3861
    10.4143  10.5566  10.6328  10.6698  10.6955  10.7270  10.7837  10.7925
    10.8012  11.1010  11.1095  11.2801  11.3006  11.3112  11.3607  11.4290
    11.4893  11.5087  11.5471  11.5540  11.7390  11.7426  11.7989  11.8147
    11.8222  11.8390  11.9479  12.0074  12.0274  12.0335  12.0517  12.1018
    12.1158  12.1221  12.1779  12.2022  12.2481  12.2514  12.2760  12.3266
    12.3787  12.4178  12.4701  12.5127  12.5474  12.5587  12.5590  12.6102
    12.6400  12.7511  12.7784  12.7877  12.8024  12.8519  12.9817  13.0152
    13.1029  13.1228  13.1420  13.3103  13.9428  14.0707  14.2631  14.4048
    14.9517  15.1555  15.1954  15.2706  15.3485  15.5302  15.6959  15.8468
    15.9804  16.0969  17.0526  17.0678  17.1599  17.3372  17.3488  17.4238
    17.4374  17.4523  17.5343  17.5416  17.5749  17.5894  17.7384  17.8159
    17.9114  18.0727  18.2302  18.2410  18.2587  18.3456  18.7390  19.3152
    19.6570  19.7430

          k =-0.5303 0.1768-0.1360 ( 13660 PWs)   bands (ev):

   -66.4494 -66.4487 -66.4214 -66.4209 -61.8630 -61.8622 -61.8517 -61.8511
   -35.2137 -35.2137 -35.1910 -35.1909 -35.1856 -35.1852 -35.1713 -35.1689
   -35.1663 -35.1643 -35.1269 -35.1268 -30.6937 -30.6933 -30.6922 -30.6920
   -30.6851 -30.6829 -30.6808 -30.6782 -30.6774 -30.6772 -30.6725 -30.6723
     6.5601   6.6570   7.6575   7.7358   8.3253   8.5696   8.7318   8.8152
     8.8418   8.9005   9.0272   9.0687   9.1916   9.3004   9.3167   9.3471
     9.3956   9.4029   9.4391   9.5204   9.5355   9.5467   9.6100   9.6656
     9.6832   9.7047   9.8231   9.9109   9.9158   9.9329   9.9714   9.9714
     9.9943  10.0458  10.0721  10.0972  10.1549  10.1947  10.2046  10.2341
    10.2952  10.3297  10.3420  10.4435  10.5251  10.5286  10.5361  10.6038
    10.6206  10.7023  10.7356  10.7736  10.7737  10.8033  10.8217  10.9065
    10.9359  10.9951  11.0094  11.1273  11.1655  11.1688  11.2362  11.2403
    11.3306  11.3308  11.3604  11.4221  11.4588  11.4815  11.5025  11.5796
    11.5871  11.6633  11.7067  11.7251  11.8010  11.8099  11.8514  11.9048
    11.9685  11.9704  11.9999  12.0433  12.1634  12.1869  12.1934  12.2024
    12.2430  12.2752  12.3194  12.3457  12.4131  12.4714  12.5502  12.5717
    12.6267  12.6514  12.7008  12.7517  12.7821  12.8708  12.9048  13.0499
    13.0681  13.1387  13.3504  13.6974  13.9812  14.1820  14.7887  15.2344
    15.2954  15.3920  15.6961  15.8714  15.9927  16.1392  16.2305  16.6071
    16.7197  16.8388  16.9857  17.0905  17.2523  17.2564  17.3283  17.4411
    17.4643  17.5323  17.5498  17.6173  17.8140  17.9821  18.0714  18.1691
    18.2632  18.3799  18.3998  18.4940  18.6531  18.9728  19.5410  19.8618
    20.4221  20.5682

          k =-0.5303 0.1768-0.6802 ( 13694 PWs)   bands (ev):

   -66.4494 -66.4487 -66.4214 -66.4209 -61.8630 -61.8623 -61.8517 -61.8511
   -35.2137 -35.2137 -35.1910 -35.1909 -35.1856 -35.1852 -35.1713 -35.1689
   -35.1663 -35.1643 -35.1269 -35.1268 -30.6937 -30.6934 -30.6922 -30.6920
   -30.6851 -30.6829 -30.6808 -30.6782 -30.6774 -30.6773 -30.6725 -30.6723
     7.3422   7.4081   7.4366   7.5276   8.6935   8.7749   8.8424   8.9197
     8.9282   8.9874   9.0100   9.0301   9.0379   9.0561   9.1494   9.1982
     9.2134   9.2533   9.2598   9.2698   9.3137   9.3233   9.4903   9.4955
     9.5127   9.5546   9.6040   9.6347   9.6505   9.7663   9.7852   9.9321
     9.9559  10.0704  10.1164  10.1386  10.1963  10.2873  10.3271  10.3343
    10.3456  10.3682  10.4145  10.4565  10.5068  10.5362  10.5450  10.5984
    10.6069  10.7117  10.7983  10.8537  10.8757  10.9286  10.9753  11.0086
    11.0417  11.0648  11.1123  11.1348  11.1495  11.1639  11.1732  11.2165
    11.2417  11.3117  11.3303  11.4357  11.4596  11.4826  11.5034  11.6265
    11.6859  11.7247  11.7622  11.7811  11.8775  11.9027  11.9606  11.9891
    12.0182  12.0332  12.0807  12.1352  12.1552  12.1837  12.2215  12.2221
    12.3027  12.3410  12.3616  12.3687  12.3819  12.4405  12.5013  12.6210
    12.6357  12.6443  12.7034  12.7309  12.7848  12.9148  13.0015  13.1548
    13.3134  13.5501  13.7607  13.8102  13.8739  14.0496  14.1358  14.2667
    14.7588  14.8296  14.9820  15.3042  15.7705  15.9393  16.1801  16.3104
    16.6617  16.6641  17.1646  17.2090  17.2402  17.3126  17.3750  17.4456
    17.4881  17.5750  17.5851  17.7039  17.7187  17.7550  17.9832  18.1334
    18.1880  18.2019  18.4753  18.5585  18.7284  18.7643  18.9648  19.0549
    19.7282  20.0055

          k =-0.5303 0.1768 0.9522 ( 13712 PWs)   bands (ev):

   -66.4494 -66.4487 -66.4213 -66.4209 -61.8629 -61.8623 -61.8516 -61.8512
   -35.2137 -35.2137 -35.1911 -35.1910 -35.1856 -35.1852 -35.1713 -35.1689
   -35.1663 -35.1643 -35.1269 -35.1267 -30.6938 -30.6934 -30.6922 -30.6920
   -30.6850 -30.6829 -30.6808 -30.6782 -30.6775 -30.6773 -30.6724 -30.6722
     7.9738   7.9886   8.0307   8.0983   8.5347   8.6129   8.6251   8.6346
     8.6734   8.6927   8.8334   8.8559   8.8759   8.9409   9.0000   9.0966
     9.2053   9.2226   9.3463   9.3705   9.4044   9.4877   9.4943   9.5237
     9.5422   9.5951   9.6119   9.6601   9.6732   9.7477   9.7599   9.7877
     9.8369   9.9175   9.9292   9.9950  10.0236  10.0365  10.1192  10.1549
    10.1722  10.1968  10.2396  10.2702  10.4055  10.4073  10.4838  10.6144
    10.6409  10.7108  10.7621  10.7908  10.8020  10.8707  10.9507  10.9644
    11.0304  11.0766  11.0882  11.2276  11.2505  11.3994  11.4012  11.4985
    11.5001  11.5094  11.5293  11.6174  11.6856  11.7491  11.8320  11.8568
    11.8813  11.9023  11.9655  11.9930  12.0017  12.0361  12.0564  12.0983
    12.1056  12.1454  12.1686  12.1840  12.2095  12.2440  12.2606  12.2907
    12.2947  12.3270  12.3660  12.4282  12.4298  12.4943  12.5772  12.6133
    12.6275  12.6550  12.7441  12.8413  12.8997  12.9197  12.9950  13.0437
    13.0986  13.1044  13.1125  13.2359  13.6689  13.8635  13.9447  14.2133
    14.4333  14.6740  14.8181  15.0456  15.5521  15.6583  15.7700  16.0690
    16.2367  16.4498  17.0592  17.1080  17.1992  17.2640  17.3355  17.4197
    17.4566  17.4613  17.4873  17.4940  17.5354  17.5779  17.6796  18.0167
    18.0754  18.1140  18.1960  18.2143  18.2927  18.3716  18.5065  18.5839
    19.6537  19.9839

          k =-0.5303 0.1768 0.4081 ( 13670 PWs)   bands (ev):

   -66.4494 -66.4487 -66.4213 -66.4209 -61.8630 -61.8622 -61.8516 -61.8512
   -35.2137 -35.2137 -35.1910 -35.1909 -35.1856 -35.1852 -35.1713 -35.1689
   -35.1663 -35.1643 -35.1269 -35.1268 -30.6937 -30.6934 -30.6922 -30.6920
   -30.6851 -30.6829 -30.6808 -30.6782 -30.6774 -30.6773 -30.6725 -30.6722
     6.8421   6.9295   8.3567   8.3971   8.4420   8.5406   8.5455   8.5706
     8.6622   8.7735   9.0185   9.0478   9.1046   9.1919   9.1956   9.2173
     9.2533   9.2930   9.3303   9.3305   9.3509   9.4456   9.5078   9.5130
     9.5738   9.6038   9.6561   9.6861   9.6950   9.7353   9.8021   9.8441
     9.8770   9.9330   9.9664  10.0265  10.0513  10.1454  10.1723  10.2427
    10.3194  10.3764  10.4490  10.5037  10.5417  10.5932  10.6409  10.7500
    10.7922  10.8033  10.8913  10.8923  10.9693  10.9786  11.0332  11.0587
    11.0645  11.1222  11.1388  11.1529  11.2351  11.2627  11.3381  11.3792
    11.4406  11.5326  11.5483  11.5894  11.6016  11.6516  11.6766  11.6864
    11.7547  11.7578  11.8186  11.8250  11.8912  11.9526  11.9534  11.9868
    12.0046  12.1036  12.1381  12.1584  12.1585  12.2192  12.2262  12.2807
    12.2841  12.3280  12.3670  12.3719  12.4149  12.4955  12.4996  12.5407
    12.5895  12.6320  12.6509  12.7061  12.7302  12.7774  12.8455  12.8559
    12.8933  12.8980  12.9015  13.0868  13.5171  13.6070  14.5216  14.9927
    15.0175  15.1058  15.2823  15.3546  15.5844  15.5935  15.7851  16.1455
    16.1462  16.8458  17.0287  17.1427  17.1457  17.3329  17.3584  17.4366
    17.4536  17.4700  17.5369  17.5791  17.6890  17.7432  17.9131  18.0993
    18.1379  18.2442  18.3053  18.3110  19.2497  19.4699  19.6609  19.6853
    19.7493  19.8946

          k = 0.0000 0.7071 0.2721 ( 13680 PWs)   bands (ev):

   -66.4494 -66.4487 -66.4215 -66.4207 -61.8630 -61.8622 -61.8518 -61.8510
   -35.2137 -35.2137 -35.1909 -35.1909 -35.1856 -35.1852 -35.1713 -35.1689
   -35.1663 -35.1643 -35.1269 -35.1268 -30.6937 -30.6933 -30.6922 -30.6920
   -30.6851 -30.6829 -30.6809 -30.6782 -30.6774 -30.6772 -30.6725 -30.6723
     6.9662   7.0419   7.0490   7.1490   8.5592   8.7307   8.7564   8.9357
     8.9770   8.9845   9.1263   9.1597   9.1731   9.2142   9.2238   9.2384
     9.2740   9.3587   9.3819   9.5000   9.5101   9.5286   9.5404   9.5457
     9.6337   9.6370   9.6565   9.8815  10.0088  10.0190  10.0215  10.0270
    10.0625  10.0671  10.0929  10.1227  10.1631  10.1649  10.1745  10.1877
    10.2151  10.4640  10.5004  10.5022  10.5742  10.5846  10.5999  10.6950
    10.7360  10.7549  10.7864  10.8158  10.8280  10.8582  10.8585  10.9432
    11.0309  11.0563  11.0753  11.0820  11.1019  11.1406  11.1586  11.1793
    11.1998  11.2584  11.2700  11.3634  11.3809  11.3933  11.4325  11.4706
    11.4763  11.4861  11.5428  11.5689  11.7371  11.7374  11.7388  11.8221
    11.9215  11.9539  12.0071  12.1032  12.1667  12.1701  12.1912  12.1990
    12.2555  12.2676  12.2891  12.3412  12.4377  12.4406  12.5499  12.6202
    12.6485  12.6539  12.7199  12.7840  12.8223  12.8287  12.8298  13.2786
    13.3623  13.4987  13.6428  13.6854  14.1363  14.5962  14.6143  15.0229
    15.2561  15.3308  15.6866  15.7332  15.8317  15.9146  16.1547  16.8525
    16.8532  16.9004  16.9142  17.0221  17.2664  17.3355  17.4120  17.4801
    17.5172  17.5295  17.6819  17.6863  17.8753  17.9568  18.0439  18.1569
    18.2141  18.2699  18.3183  18.6644  18.9935  19.0691  19.0959  19.1590
    20.6546  20.6659

          k = 0.0000 0.7071-0.2721 ( 13688 PWs)   bands (ev):

   -66.4494 -66.4487 -66.4215 -66.4208 -61.8630 -61.8622 -61.8517 -61.8511
   -35.2137 -35.2137 -35.1910 -35.1909 -35.1856 -35.1852 -35.1713 -35.1689
   -35.1663 -35.1643 -35.1269 -35.1268 -30.6937 -30.6934 -30.6922 -30.6920
   -30.6850 -30.6829 -30.6808 -30.6782 -30.6775 -30.6772 -30.6724 -30.6723
     7.0059   7.0924   7.8808   7.9495   8.6264   8.6574   8.6909   8.7827
     8.8134   8.8385   9.0321   9.0515   9.0610   9.1101   9.1234   9.1474
     9.2098   9.2415   9.3364   9.3655   9.3879   9.4313   9.5123   9.5521
     9.5550   9.5976   9.6449   9.6596   9.7077   9.8016   9.8051   9.9773
    10.0203  10.0284  10.0465  10.0834  10.1070  10.1128  10.1627  10.1700
    10.2192  10.2495  10.4166  10.5305  10.5382  10.5577  10.5726  10.6819
    10.7766  10.8000  10.8401  10.8672  10.9371  10.9650  11.0240  11.0711
    11.0835  11.0869  11.1106  11.1293  11.1654  11.1956  11.2681  11.3034
    11.3854  11.4085  11.4101  11.4577  11.4977  11.5104  11.5975  11.6229
    11.6962  11.7577  11.7963  11.8171  11.9245  11.9597  11.9803  11.9922
    12.0368  12.0432  12.1430  12.1469  12.1634  12.1928  12.2190  12.2347
    12.2854  12.3092  12.3112  12.3325  12.3449  12.4853  12.4895  12.6297
    12.6317  12.6599  12.6617  12.7299  12.7322  12.8550  12.8588  13.0953
    13.1584  13.2971  13.3254  13.5477  13.6384  13.7348  14.3149  14.4727
    14.7894  14.9260  15.3402  15.4988  15.7943  15.9829  16.0013  16.4059
    16.6400  16.6435  16.8912  16.9007  17.2233  17.3077  17.3952  17.4737
    17.4833  17.4980  17.5695  17.6593  17.6882  17.7689  17.9127  18.0868
    18.1101  18.1729  18.2081  18.2489  18.4187  18.5319  19.0493  19.1417
    20.5217  20.7161

          k = 0.0000 0.7071 1.3603 ( 13696 PWs)   bands (ev):

   -66.4494 -66.4487 -66.4214 -66.4208 -61.8629 -61.8623 -61.8517 -61.8511
   -35.2137 -35.2137 -35.1910 -35.1910 -35.1856 -35.1852 -35.1713 -35.1689
   -35.1663 -35.1643 -35.1269 -35.1268 -30.6938 -30.6934 -30.6922 -30.6920
   -30.6850 -30.6829 -30.6808 -30.6782 -30.6775 -30.6773 -30.6724 -30.6723
     7.8482   7.9108   7.9114   7.9819   8.5747   8.6529   8.6702   8.6817
     8.7270   8.7431   8.8569   8.9465   8.9746   9.0727   9.0775   9.0999
     9.1050   9.1634   9.2068   9.2090   9.2652   9.4428   9.4487   9.5453
     9.5564   9.5566   9.5857   9.5919   9.6040   9.6415   9.6767   9.7607
     9.7797   9.9400   9.9495  10.0138  10.0557  10.0963  10.1109  10.1224
    10.2130  10.2168  10.2198  10.2824  10.4626  10.4978  10.5857  10.6037
    10.8603  10.9048  10.9102  11.0015  11.0091  11.0495  11.0547  11.1065
    11.1242  11.1662  11.2433  11.2503  11.3958  11.4357  11.4500  11.4651
    11.4695  11.5284  11.5647  11.7352  11.7564  11.7635  11.8650  11.8962
    11.9205  11.9667  11.9724  11.9891  12.0234  12.0306  12.0430  12.0457
    12.0500  12.0551  12.1305  12.1327  12.2126  12.2258  12.2615  12.2678
    12.2810  12.3284  12.3286  12.3747  12.4218  12.4620  12.4673  12.5604
    12.6368  12.6484  12.6691  12.7180  12.7183  12.7218  12.7411  12.9873
    13.0795  13.2135  13.2664  13.2854  13.4289  13.6273  13.6745  13.8204
    14.1675  14.6548  14.7138  14.7218  15.7858  15.7917  16.0604  16.2929
    16.4241  16.5670  16.5886  16.7556  17.0702  17.2711  17.2908  17.2972
    17.4577  17.4585  17.4715  17.5007  17.5460  17.6145  17.6378  17.9536
    17.9934  18.1829  18.2144  18.2675  18.3191  18.3755  18.3913  18.5513
    20.5005  20.6899

     the Fermi energy is    15.6004 ev

!    total energy              =  -14693.93750927 Ry
     Harris-Foulkes estimate   =  -14693.93748918 Ry
     estimated scf accuracy    <       0.00000047 Ry

     total all-electron energy =   -626921.533231 Ry

     The total energy is the sum of the following terms:

     one-electron contribution =    -698.38590495 Ry
     hartree contribution      =     651.53627459 Ry
     xc contribution           =    -738.10625216 Ry
     ewald contribution        =   -2207.56121140 Ry
     Hubbard energy            =       0.45672188 Ry
     one-center paw contrib.   =  -11701.87713723 Ry

     total magnetization       =     0.00 Bohr mag/cell
     absolute magnetization    =    36.85 Bohr mag/cell

     convergence has been achieved in  18 iterations

     Writing output data file mnau2.save/
 
     init_run     :     21.79s CPU     22.64s WALL (       1 calls)
     electrons    :    960.46s CPU    988.07s WALL (       1 calls)

     Called by init_run:
     wfcinit      :     19.34s CPU     20.07s WALL (       1 calls)
     potinit      :      1.32s CPU      1.35s WALL (       1 calls)
     hinit0       :      0.68s CPU      0.72s WALL (       1 calls)

     Called by electrons:
     c_bands      :    841.72s CPU    864.82s WALL (      18 calls)
     sum_band     :     97.61s CPU    101.08s WALL (      18 calls)
     v_of_rho     :      1.75s CPU      1.77s WALL (      19 calls)
     newd         :      6.30s CPU      7.03s WALL (      19 calls)
     PAW_pot      :     13.78s CPU     13.85s WALL (      19 calls)
     mix_rho      :      0.29s CPU      0.31s WALL (      18 calls)

     Called by c_bands:
     init_us_2    :      7.92s CPU      7.96s WALL (    2280 calls)
     cegterg      :    804.85s CPU    827.43s WALL (    1080 calls)

     Called by sum_band:
     sum_band:bec :      0.85s CPU      0.86s WALL (    1080 calls)
     addusdens    :     11.86s CPU     13.04s WALL (      18 calls)

     Called by *egterg:
     h_psi        :    336.81s CPU    347.60s WALL (    4260 calls)
     s_psi        :     51.10s CPU     51.31s WALL (    4320 calls)
     g_psi        :      1.88s CPU      1.89s WALL (    3120 calls)
     cdiaghg      :    308.74s CPU    314.37s WALL (    4200 calls)

     Called by h_psi:
     h_psi:pot    :    318.21s CPU    326.75s WALL (    4260 calls)
     h_psi:calbec :     48.51s CPU     50.93s WALL (    4260 calls)
     vloc_psi     :    220.24s CPU    225.88s WALL (    4260 calls)
     add_vuspsi   :     49.41s CPU     49.91s WALL (    4260 calls)
     vhpsi        :     16.33s CPU     16.39s WALL (    4260 calls)

     General routines
     calbec       :     78.67s CPU     81.97s WALL (   10740 calls)
     fft          :      0.97s CPU      1.00s WALL (     471 calls)
     ffts         :      0.04s CPU      0.04s WALL (      74 calls)
     fftw         :    243.36s CPU    249.44s WALL ( 1087400 calls)
     interpolate  :      0.10s CPU      0.10s WALL (      38 calls)
     davcio       :      0.00s CPU      0.48s WALL (      60 calls)
 
     Parallel routines
     fft_scatt_xy :     30.93s CPU     31.68s WALL ( 1087945 calls)
     fft_scatt_yz :     79.84s CPU     82.06s WALL ( 1087945 calls)

     Hubbard U routines
     new_ns       :      4.39s CPU      4.64s WALL (      18 calls)
     vhpsi        :     16.33s CPU     16.39s WALL (    4260 calls)
 
     PWSCF        : 16m27.86s CPU    17m11.47s WALL

 
   This run was terminated on:  13:19: 5  26Mar2019            

=------------------------------------------------------------------------------=
   JOB DONE.
=------------------------------------------------------------------------------=
