
     Program PWSCF v.6.3MaX starts on 26Mar2019 at 11:41:21 

     This program is part of the open-source Quantum ESPRESSO suite
     for quantum simulation of materials; please cite
         "P. Giannozzi et al., J. Phys.:Condens. Matter 21 395502 (2009);
         "P. Giannozzi et al., J. Phys.:Condens. Matter 29 465901 (2017);
          URL http://www.quantum-espresso.org", 
     in publications or presentations arising from this work. More details at
     http://www.quantum-espresso.org/quote

     Parallel version (MPI), running on    16 processors

     MPI processes distributed on     1 nodes
     R & G space division:  proc/nbgrp/npool/nimage =      16
     Waiting for input...
     Reading input from standard input

     Current dimensions of program PWSCF are:
     Max number of different atomic species (ntypx) = 10
     Max number of k-points (npk) =  40000
     Max angular momentum in pseudopotentials (lmaxx) =  3
     Message from routine read_upf::
     Pseudo file ./pseudo/Mn.pbe-spn-kjpaw_psl.0.3.1.UPF has been successfully fixed on the fly.
To avoid this message in the future you can permanently fix 
 your pseudo files following instructions given in: 
https://gitlab.com/QEF/q-e/blob/master/upftools/how_to_fix_upf.md
               file Mn.pbe-spn-kjpaw_psl.0.3.1.UPF: wavefunction(s)  3P 3D renormalized
     Message from routine read_upf::
     Pseudo file ./pseudo/Mn.pbe-spn-kjpaw_psl.0.3.1.UPF has been successfully fixed on the fly.
To avoid this message in the future you can permanently fix 
 your pseudo files following instructions given in: 
https://gitlab.com/QEF/q-e/blob/master/upftools/how_to_fix_upf.md
               file Mn.pbe-spn-kjpaw_psl.0.3.1.UPF: wavefunction(s)  3P 3D renormalized
     Message from routine read_upf::
     Pseudo file ./pseudo/Au.pbe-dn-kjpaw_psl.0.1.UPF has been successfully fixed on the fly.
To avoid this message in the future you can permanently fix 
 your pseudo files following instructions given in: 
https://gitlab.com/QEF/q-e/blob/master/upftools/how_to_fix_upf.md
               file Au.pbe-dn-kjpaw_psl.0.1.UPF: wavefunction(s)  6S 6P 5D renormalized

     Subspace diagonalization in iterative solution of the eigenvalue problem:
     one sub-group per band group will be used
     scalapack distributed-memory algorithm (size of sub-group:  2*  2 procs)

 
     Parallelization info
     --------------------
     sticks:   dense  smooth     PW     G-vecs:    dense   smooth      PW
     Min         646     290     84                22663     6843    1075
     Max         647     291     85                22664     6844    1077
     Sum       10349    4645   1353               362619   109493   17211
 


     bravais-lattice index     =            0
     lattice parameter (alat)  =      18.0125  a.u.
     unit-cell volume          =    2685.0513 (a.u.)^3
     number of atoms/cell      =           24
     number of atomic types    =            3
     number of electrons       =       296.00
     number of Kohn-Sham states=          178
     kinetic-energy cutoff     =      45.0000  Ry
     charge density cutoff     =     400.0000  Ry
     convergence threshold     =      1.0E-06
     mixing beta               =       0.1000
     number of iterations used =            8  plain     mixing
     Exchange-correlation      = SLA PW PBX PBC ( 1  4  3  4 0 0)

     celldm(1)=  18.012490  celldm(2)=   0.000000  celldm(3)=   0.000000
     celldm(4)=   0.000000  celldm(5)=   0.000000  celldm(6)=   0.000000

     crystal axes: (cart. coord. in units of alat)
               a(1) = (   0.707107  -0.707107   0.000000 )  
               a(2) = (  -0.707107  -0.707107   0.000000 )  
               a(3) = (   0.176777   0.176777  -0.459443 )  

     reciprocal axes: (cart. coord. in units 2 pi/alat)
               b(1) = (  0.707107 -0.707107  0.000000 )  
               b(2) = ( -0.707107 -0.707107 -0.544138 )  
               b(3) = (  0.000000  0.000000 -2.176550 )  


     PseudoPot. # 1 for Mn read from file:
     ./pseudo/Mn.pbe-spn-kjpaw_psl.0.3.1.UPF
     MD5 check sum: 7eef95dd2aae66803482eea66ebeebf1
     Pseudo is Projector augmented-wave + core cor, Zval = 15.0
     Generated using "atomic" code by A. Dal Corso v.5.0.99 svn rev. 10869
     Shape of augmentation charge: PSQ
     Using radial grid of 1187 points,  6 beta functions with: 
                l(1) =   0
                l(2) =   0
                l(3) =   1
                l(4) =   1
                l(5) =   2
                l(6) =   2
     Q(r) pseudized with 0 coefficients 


     PseudoPot. # 2 for Mn read from file:
     ./pseudo/Mn.pbe-spn-kjpaw_psl.0.3.1.UPF
     MD5 check sum: 7eef95dd2aae66803482eea66ebeebf1
     Pseudo is Projector augmented-wave + core cor, Zval = 15.0
     Generated using "atomic" code by A. Dal Corso v.5.0.99 svn rev. 10869
     Shape of augmentation charge: PSQ
     Using radial grid of 1187 points,  6 beta functions with: 
                l(1) =   0
                l(2) =   0
                l(3) =   1
                l(4) =   1
                l(5) =   2
                l(6) =   2
     Q(r) pseudized with 0 coefficients 


     PseudoPot. # 3 for Au read from file:
     ./pseudo/Au.pbe-dn-kjpaw_psl.0.1.UPF
     MD5 check sum: 5c9b92683623e7ae2ab3f8e525febab6
     Pseudo is Projector augmented-wave + core cor, Zval = 11.0
     Generated using "atomic" code by A. Dal Corso v.5.0.2 svn rev. 9415
     Shape of augmentation charge: PSQ
     Using radial grid of 1279 points,  6 beta functions with: 
                l(1) =   0
                l(2) =   0
                l(3) =   1
                l(4) =   1
                l(5) =   2
                l(6) =   2
     Q(r) pseudized with 0 coefficients 


     atomic species   valence    mass     pseudopotential
        Mn1           15.00    54.93800     Mn( 1.00)
        Mn2           15.00    54.93800     Mn( 1.00)
        Au            11.00   196.96600     Au( 1.00)

     Starting magnetic structure 
     atomic species   magnetization
        Mn1          1.000
        Mn2         -1.000
        Au           0.000


     Full LDA+U calculation (l_max = 2) with parameters (eV):
     U(  1) =   3.1200   J(  1) =   0.7000   B(  1) =   0.0803
     U(  2) =   3.1200   J(  2) =   0.7000   B(  2) =   0.0803



      2 Sym. Ops. (no inversion) found ( 1 have fractional translation)



   Cartesian axes

     site n.     atom                  positions (alat units)
         1           Mn1 tau(   1) = (   0.3535534  -0.3535534   0.0000000  )
         2           Mn1 tau(   2) = (   0.0000000   0.0000000   0.0000000  )
         3           Mn1 tau(   3) = (   0.0000000  -0.3535534   0.0000000  )
         4           Mn2 tau(   4) = (   0.3535534  -0.7071068   0.0000000  )
         5           Mn2 tau(   5) = (  -0.3535534  -0.3535534   0.0000000  )
         6           Mn2 tau(   6) = (   0.0000000  -0.7071068   0.0000000  )
         7           Mn1 tau(   7) = (  -0.3535534  -0.7071068   0.0000000  )
         8           Mn1 tau(   8) = (   0.0000000  -1.0606602   0.0000000  )
         9           Au  tau(   9) = (  -0.1767767  -0.1767767  -0.1470216  )
        10           Au  tau(  10) = (   0.1767767  -0.5303301  -0.1470216  )
        11           Au  tau(  11) = (  -0.1767767  -0.5303301  -0.1470216  )
        12           Au  tau(  12) = (   0.1767767  -0.8838835  -0.1470216  )
        13           Au  tau(  13) = (  -0.5303301  -0.5303301  -0.1470216  )
        14           Au  tau(  14) = (  -0.1767767  -0.8838835  -0.1470216  )
        15           Au  tau(  15) = (   0.5303301  -0.5303301  -0.1470216  )
        16           Au  tau(  16) = (   0.1767767  -0.1767767  -0.1470216  )
        17           Au  tau(  17) = (   0.3535534  -0.3535534  -0.3124210  )
        18           Au  tau(  18) = (   0.0000000   0.0000000  -0.3124210  )
        19           Au  tau(  19) = (   0.0000000  -0.3535534  -0.3124210  )
        20           Au  tau(  20) = (   0.3535534  -0.7071068  -0.3124210  )
        21           Au  tau(  21) = (  -0.3535534  -0.3535534  -0.3124210  )
        22           Au  tau(  22) = (  -0.0000000  -0.7071068  -0.3124210  )
        23           Au  tau(  23) = (  -0.3535534  -0.7071068  -0.3124210  )
        24           Au  tau(  24) = (   0.0000000  -1.0606602  -0.3124210  )

     number of k points=    30 (tetrahedron method)
                       cart. coord. in units 2pi/alat
        k(    1) = (   0.0000000   0.0000000   0.0000000), wk =   0.0156250
        k(    2) = (   0.0000000   0.0000000  -0.5441376), wk =   0.0312500
        k(    3) = (   0.0000000   0.0000000   1.0882752), wk =   0.0156250
        k(    4) = (  -0.1767767  -0.1767767  -0.1360344), wk =   0.0312500
        k(    5) = (  -0.1767767  -0.1767767  -0.6801720), wk =   0.0312500
        k(    6) = (  -0.1767767  -0.1767767   0.9522408), wk =   0.0312500
        k(    7) = (  -0.1767767  -0.1767767   0.4081032), wk =   0.0312500
        k(    8) = (   0.3535534   0.3535534   0.2720688), wk =   0.0156250
        k(    9) = (   0.3535534   0.3535534  -0.2720688), wk =   0.0312500
        k(   10) = (   0.3535534   0.3535534   1.3603439), wk =   0.0156250
        k(   11) = (   0.1767767  -0.1767767   0.0000000), wk =   0.0312500
        k(   12) = (   0.1767767  -0.1767767  -0.5441376), wk =   0.0625000
        k(   13) = (   0.1767767  -0.1767767   1.0882752), wk =   0.0312500
        k(   14) = (   0.0000000  -0.3535534  -0.1360344), wk =   0.0625000
        k(   15) = (   0.0000000  -0.3535534  -0.6801720), wk =   0.0625000
        k(   16) = (   0.0000000  -0.3535534   0.9522408), wk =   0.0625000
        k(   17) = (   0.0000000  -0.3535534   0.4081032), wk =   0.0625000
        k(   18) = (   0.5303301   0.1767767   0.2720688), wk =   0.0312500
        k(   19) = (   0.5303301   0.1767767  -0.2720688), wk =   0.0625000
        k(   20) = (   0.5303301   0.1767767   1.3603439), wk =   0.0312500
        k(   21) = (  -0.3535534   0.3535534   0.0000000), wk =   0.0156250
        k(   22) = (  -0.3535534   0.3535534  -0.5441376), wk =   0.0312500
        k(   23) = (  -0.3535534   0.3535534   1.0882752), wk =   0.0156250
        k(   24) = (  -0.5303301   0.1767767  -0.1360344), wk =   0.0312500
        k(   25) = (  -0.5303301   0.1767767  -0.6801720), wk =   0.0312500
        k(   26) = (  -0.5303301   0.1767767   0.9522408), wk =   0.0312500
        k(   27) = (  -0.5303301   0.1767767   0.4081032), wk =   0.0312500
        k(   28) = (   0.0000000   0.7071068   0.2720688), wk =   0.0156250
        k(   29) = (   0.0000000   0.7071068  -0.2720688), wk =   0.0312500
        k(   30) = (   0.0000000   0.7071068   1.3603439), wk =   0.0156250

     Dense  grid:   362619 G-vectors     FFT dimensions: ( 120, 120,  60)

     Smooth grid:   109493 G-vectors     FFT dimensions: (  80,  80,  45)

     Estimated max dynamical RAM per process >     286.87 MB

     Estimated total dynamical RAM >       4.48 GB
     Generating pointlists ...
     new r_m :   0.1196 (alat units)  2.1549 (a.u.) for type    1
     new r_m :   0.1196 (alat units)  2.1549 (a.u.) for type    2
     new r_m :   0.1196 (alat units)  2.1549 (a.u.) for type    3

     Check: negative/imaginary core charge=   -0.000006    0.000000

     Initial potential from superposition of free atoms

     starting charge  295.99426, renormalised to  296.00000
     Number of +U iterations with fixed ns =  0
     Starting occupations:
 --- enter write_ns ---
 LDA+U parameters:
U(  1) =   3.1200   J(  1) =   0.7000   B(  1) =   0.0803
U(  2) =   3.1200   J(  2) =   0.7000   B(  2) =   0.0803
atom    1   Tr[ns(na)] (up, down, total) =   5.00000  0.00000  5.00000
   spin  1
    eigenvalues: 
  1.000  1.000  1.000  1.000  1.000
    eigenvectors:
  1.000  0.000  0.000  0.000  0.000
  0.000  1.000  0.000  0.000  0.000
  0.000  0.000  1.000  0.000  0.000
  0.000  0.000  0.000  1.000  0.000
  0.000  0.000  0.000  0.000  1.000
    occupations:
  1.000  0.000  0.000  0.000  0.000
  0.000  1.000  0.000  0.000  0.000
  0.000  0.000  1.000  0.000  0.000
  0.000  0.000  0.000  1.000  0.000
  0.000  0.000  0.000  0.000  1.000
   spin  2
    eigenvalues: 
  0.000  0.000  0.000  0.000  0.000
    eigenvectors:
  1.000  0.000  0.000  0.000  0.000
  0.000  1.000  0.000  0.000  0.000
  0.000  0.000  1.000  0.000  0.000
  0.000  0.000  0.000  1.000  0.000
  0.000  0.000  0.000  0.000  1.000
    occupations:
  0.000  0.000  0.000  0.000  0.000
  0.000  0.000  0.000  0.000  0.000
  0.000  0.000  0.000  0.000  0.000
  0.000  0.000  0.000  0.000  0.000
  0.000  0.000  0.000  0.000  0.000
atomic mag. moment =     5.000000
atom    2   Tr[ns(na)] (up, down, total) =   5.00000  0.00000  5.00000
   spin  1
    eigenvalues: 
  1.000  1.000  1.000  1.000  1.000
    eigenvectors:
  1.000  0.000  0.000  0.000  0.000
  0.000  1.000  0.000  0.000  0.000
  0.000  0.000  1.000  0.000  0.000
  0.000  0.000  0.000  1.000  0.000
  0.000  0.000  0.000  0.000  1.000
    occupations:
  1.000  0.000  0.000  0.000  0.000
  0.000  1.000  0.000  0.000  0.000
  0.000  0.000  1.000  0.000  0.000
  0.000  0.000  0.000  1.000  0.000
  0.000  0.000  0.000  0.000  1.000
   spin  2
    eigenvalues: 
  0.000  0.000  0.000  0.000  0.000
    eigenvectors:
  1.000  0.000  0.000  0.000  0.000
  0.000  1.000  0.000  0.000  0.000
  0.000  0.000  1.000  0.000  0.000
  0.000  0.000  0.000  1.000  0.000
  0.000  0.000  0.000  0.000  1.000
    occupations:
  0.000  0.000  0.000  0.000  0.000
  0.000  0.000  0.000  0.000  0.000
  0.000  0.000  0.000  0.000  0.000
  0.000  0.000  0.000  0.000  0.000
  0.000  0.000  0.000  0.000  0.000
atomic mag. moment =     5.000000
atom    3   Tr[ns(na)] (up, down, total) =   5.00000  0.00000  5.00000
   spin  1
    eigenvalues: 
  1.000  1.000  1.000  1.000  1.000
    eigenvectors:
  1.000  0.000  0.000  0.000  0.000
  0.000  1.000  0.000  0.000  0.000
  0.000  0.000  1.000  0.000  0.000
  0.000  0.000  0.000  1.000  0.000
  0.000  0.000  0.000  0.000  1.000
    occupations:
  1.000  0.000  0.000  0.000  0.000
  0.000  1.000  0.000  0.000  0.000
  0.000  0.000  1.000  0.000  0.000
  0.000  0.000  0.000  1.000  0.000
  0.000  0.000  0.000  0.000  1.000
   spin  2
    eigenvalues: 
  0.000  0.000  0.000  0.000  0.000
    eigenvectors:
  1.000  0.000  0.000  0.000  0.000
  0.000  1.000  0.000  0.000  0.000
  0.000  0.000  1.000  0.000  0.000
  0.000  0.000  0.000  1.000  0.000
  0.000  0.000  0.000  0.000  1.000
    occupations:
  0.000  0.000  0.000  0.000  0.000
  0.000  0.000  0.000  0.000  0.000
  0.000  0.000  0.000  0.000  0.000
  0.000  0.000  0.000  0.000  0.000
  0.000  0.000  0.000  0.000  0.000
atomic mag. moment =     5.000000
atom    4   Tr[ns(na)] (up, down, total) =   0.00000  5.00000  5.00000
   spin  1
    eigenvalues: 
  0.000  0.000  0.000  0.000  0.000
    eigenvectors:
  1.000  0.000  0.000  0.000  0.000
  0.000  1.000  0.000  0.000  0.000
  0.000  0.000  1.000  0.000  0.000
  0.000  0.000  0.000  1.000  0.000
  0.000  0.000  0.000  0.000  1.000
    occupations:
  0.000  0.000  0.000  0.000  0.000
  0.000  0.000  0.000  0.000  0.000
  0.000  0.000  0.000  0.000  0.000
  0.000  0.000  0.000  0.000  0.000
  0.000  0.000  0.000  0.000  0.000
   spin  2
    eigenvalues: 
  1.000  1.000  1.000  1.000  1.000
    eigenvectors:
  1.000  0.000  0.000  0.000  0.000
  0.000  1.000  0.000  0.000  0.000
  0.000  0.000  1.000  0.000  0.000
  0.000  0.000  0.000  1.000  0.000
  0.000  0.000  0.000  0.000  1.000
    occupations:
  1.000  0.000  0.000  0.000  0.000
  0.000  1.000  0.000  0.000  0.000
  0.000  0.000  1.000  0.000  0.000
  0.000  0.000  0.000  1.000  0.000
  0.000  0.000  0.000  0.000  1.000
atomic mag. moment =    -5.000000
atom    5   Tr[ns(na)] (up, down, total) =   0.00000  5.00000  5.00000
   spin  1
    eigenvalues: 
  0.000  0.000  0.000  0.000  0.000
    eigenvectors:
  1.000  0.000  0.000  0.000  0.000
  0.000  1.000  0.000  0.000  0.000
  0.000  0.000  1.000  0.000  0.000
  0.000  0.000  0.000  1.000  0.000
  0.000  0.000  0.000  0.000  1.000
    occupations:
  0.000  0.000  0.000  0.000  0.000
  0.000  0.000  0.000  0.000  0.000
  0.000  0.000  0.000  0.000  0.000
  0.000  0.000  0.000  0.000  0.000
  0.000  0.000  0.000  0.000  0.000
   spin  2
    eigenvalues: 
  1.000  1.000  1.000  1.000  1.000
    eigenvectors:
  1.000  0.000  0.000  0.000  0.000
  0.000  1.000  0.000  0.000  0.000
  0.000  0.000  1.000  0.000  0.000
  0.000  0.000  0.000  1.000  0.000
  0.000  0.000  0.000  0.000  1.000
    occupations:
  1.000  0.000  0.000  0.000  0.000
  0.000  1.000  0.000  0.000  0.000
  0.000  0.000  1.000  0.000  0.000
  0.000  0.000  0.000  1.000  0.000
  0.000  0.000  0.000  0.000  1.000
atomic mag. moment =    -5.000000
atom    6   Tr[ns(na)] (up, down, total) =   0.00000  5.00000  5.00000
   spin  1
    eigenvalues: 
  0.000  0.000  0.000  0.000  0.000
    eigenvectors:
  1.000  0.000  0.000  0.000  0.000
  0.000  1.000  0.000  0.000  0.000
  0.000  0.000  1.000  0.000  0.000
  0.000  0.000  0.000  1.000  0.000
  0.000  0.000  0.000  0.000  1.000
    occupations:
  0.000  0.000  0.000  0.000  0.000
  0.000  0.000  0.000  0.000  0.000
  0.000  0.000  0.000  0.000  0.000
  0.000  0.000  0.000  0.000  0.000
  0.000  0.000  0.000  0.000  0.000
   spin  2
    eigenvalues: 
  1.000  1.000  1.000  1.000  1.000
    eigenvectors:
  1.000  0.000  0.000  0.000  0.000
  0.000  1.000  0.000  0.000  0.000
  0.000  0.000  1.000  0.000  0.000
  0.000  0.000  0.000  1.000  0.000
  0.000  0.000  0.000  0.000  1.000
    occupations:
  1.000  0.000  0.000  0.000  0.000
  0.000  1.000  0.000  0.000  0.000
  0.000  0.000  1.000  0.000  0.000
  0.000  0.000  0.000  1.000  0.000
  0.000  0.000  0.000  0.000  1.000
atomic mag. moment =    -5.000000
atom    7   Tr[ns(na)] (up, down, total) =   5.00000  0.00000  5.00000
   spin  1
    eigenvalues: 
  1.000  1.000  1.000  1.000  1.000
    eigenvectors:
  1.000  0.000  0.000  0.000  0.000
  0.000  1.000  0.000  0.000  0.000
  0.000  0.000  1.000  0.000  0.000
  0.000  0.000  0.000  1.000  0.000
  0.000  0.000  0.000  0.000  1.000
    occupations:
  1.000  0.000  0.000  0.000  0.000
  0.000  1.000  0.000  0.000  0.000
  0.000  0.000  1.000  0.000  0.000
  0.000  0.000  0.000  1.000  0.000
  0.000  0.000  0.000  0.000  1.000
   spin  2
    eigenvalues: 
  0.000  0.000  0.000  0.000  0.000
    eigenvectors:
  1.000  0.000  0.000  0.000  0.000
  0.000  1.000  0.000  0.000  0.000
  0.000  0.000  1.000  0.000  0.000
  0.000  0.000  0.000  1.000  0.000
  0.000  0.000  0.000  0.000  1.000
    occupations:
  0.000  0.000  0.000  0.000  0.000
  0.000  0.000  0.000  0.000  0.000
  0.000  0.000  0.000  0.000  0.000
  0.000  0.000  0.000  0.000  0.000
  0.000  0.000  0.000  0.000  0.000
atomic mag. moment =     5.000000
atom    8   Tr[ns(na)] (up, down, total) =   5.00000  0.00000  5.00000
   spin  1
    eigenvalues: 
  1.000  1.000  1.000  1.000  1.000
    eigenvectors:
  1.000  0.000  0.000  0.000  0.000
  0.000  1.000  0.000  0.000  0.000
  0.000  0.000  1.000  0.000  0.000
  0.000  0.000  0.000  1.000  0.000
  0.000  0.000  0.000  0.000  1.000
    occupations:
  1.000  0.000  0.000  0.000  0.000
  0.000  1.000  0.000  0.000  0.000
  0.000  0.000  1.000  0.000  0.000
  0.000  0.000  0.000  1.000  0.000
  0.000  0.000  0.000  0.000  1.000
   spin  2
    eigenvalues: 
  0.000  0.000  0.000  0.000  0.000
    eigenvectors:
  1.000  0.000  0.000  0.000  0.000
  0.000  1.000  0.000  0.000  0.000
  0.000  0.000  1.000  0.000  0.000
  0.000  0.000  0.000  1.000  0.000
  0.000  0.000  0.000  0.000  1.000
    occupations:
  0.000  0.000  0.000  0.000  0.000
  0.000  0.000  0.000  0.000  0.000
  0.000  0.000  0.000  0.000  0.000
  0.000  0.000  0.000  0.000  0.000
  0.000  0.000  0.000  0.000  0.000
atomic mag. moment =     5.000000
N of occupied +U levels =   40.000000
 --- exit write_ns ---
 Atomic wfc used for LDA+U Projector are NOT orthogonalized
     Starting wfcs are  224 randomized atomic wfcs
     Checking if some PAW data can be deallocated... 

     total cpu time spent up to now is       24.5 secs

     Self-consistent Calculation

     iteration #  1     ecut=    45.00 Ry     beta= 0.10
     Davidson diagonalization with overlap
     ethr =  1.00E-02,  avg # of iterations =  4.6
 --- enter write_ns ---
 LDA+U parameters:
U(  1) =   3.1200   J(  1) =   0.7000   B(  1) =   0.0803
U(  2) =   3.1200   J(  2) =   0.7000   B(  2) =   0.0803
atom    1   Tr[ns(na)] (up, down, total) =   5.01492  0.27293  5.28785
   spin  1
    eigenvalues: 
  1.003  1.003  1.003  1.003  1.004
    eigenvectors:
  0.001  0.001  0.000  0.989  0.009
  0.000  0.244  0.755  0.000  0.000
  0.000  0.754  0.245  0.001  0.000
  0.000  0.000  0.000  0.009  0.991
  0.999  0.000  0.000  0.001  0.000
    occupations:
  1.003  0.000 -0.000 -0.000  0.000
  0.000  1.003  0.000  0.000 -0.000
 -0.000  0.000  1.003  0.000  0.000
 -0.000  0.000  0.000  1.004  0.000
  0.000 -0.000  0.000  0.000  1.003
   spin  2
    eigenvalues: 
  0.040  0.051  0.054  0.055  0.072
    eigenvectors:
  0.008  0.934  0.012  0.046  0.000
  0.001  0.001  0.645  0.348  0.005
  0.000  0.057  0.341  0.599  0.003
  0.991  0.007  0.001  0.000  0.000
  0.000  0.000  0.001  0.007  0.992
    occupations:
  0.051  0.000  0.001  0.001  0.000
  0.000  0.055  0.001 -0.000  0.001
  0.001  0.001  0.055  0.000  0.001
  0.001 -0.000  0.000  0.040  0.000
  0.000  0.001  0.001  0.000  0.072
atomic mag. moment =     4.741989
atom    2   Tr[ns(na)] (up, down, total) =   5.01492  0.27293  5.28785
   spin  1
    eigenvalues: 
  1.003  1.003  1.003  1.003  1.004
    eigenvectors:
  0.001  0.001  0.000  0.989  0.009
  0.000  0.754  0.245  0.001  0.000
  0.000  0.244  0.755  0.000  0.000
  0.000  0.000  0.000  0.009  0.991
  0.999  0.000  0.000  0.001  0.000
    occupations:
  1.003 -0.000  0.000  0.000  0.000
 -0.000  1.003  0.000 -0.000  0.000
  0.000  0.000  1.003 -0.000 -0.000
  0.000 -0.000 -0.000  1.004 -0.000
  0.000  0.000 -0.000 -0.000  1.003
   spin  2
    eigenvalues: 
  0.040  0.051  0.054  0.055  0.072
    eigenvectors:
  0.008  0.934  0.012  0.046  0.000
  0.000  0.057  0.341  0.599  0.003
  0.001  0.001  0.645  0.348  0.005
  0.991  0.007  0.001  0.000  0.000
  0.000  0.000  0.001  0.007  0.992
    occupations:
  0.051  0.001  0.000 -0.001  0.000
  0.001  0.055  0.001 -0.000  0.001
  0.000  0.001  0.055  0.000  0.001
 -0.001 -0.000  0.000  0.040 -0.000
  0.000  0.001  0.001 -0.000  0.072
atomic mag. moment =     4.741989
atom    3   Tr[ns(na)] (up, down, total) =   5.01476  0.27491  5.28967
   spin  1
    eigenvalues: 
  1.003  1.003  1.003  1.003  1.003
    eigenvectors:
  0.001  0.000  0.000  0.999  0.000
  0.001  0.499  0.500  0.000  0.000
  0.001  0.499  0.500  0.000  0.000
  0.000  0.000  0.000  0.000  1.000
  0.997  0.002  0.000  0.001  0.000
    occupations:
  1.003  0.000  0.000 -0.000 -0.000
  0.000  1.003 -0.000 -0.000  0.000
  0.000 -0.000  1.003  0.000  0.000
 -0.000 -0.000  0.000  1.003 -0.000
 -0.000  0.000  0.000 -0.000  1.003
   spin  2
    eigenvalues: 
  0.042  0.052  0.054  0.055  0.072
    eigenvectors:
  0.000  0.950  0.048  0.000  0.002
  0.000  0.024  0.476  0.500  0.000
  0.000  0.024  0.476  0.500  0.000
  1.000  0.000  0.000  0.000  0.000
  0.000  0.003  0.000  0.000  0.997
    occupations:
  0.052  0.000  0.000 -0.000 -0.001
  0.000  0.055 -0.001  0.000  0.000
  0.000 -0.001  0.055 -0.000  0.000
 -0.000  0.000 -0.000  0.042 -0.000
 -0.001  0.000  0.000 -0.000  0.072
atomic mag. moment =     4.739851
atom    4   Tr[ns(na)] (up, down, total) =   0.27475  5.01466  5.28941
   spin  1
    eigenvalues: 
  0.041  0.053  0.055  0.055  0.071
    eigenvectors:
  0.000  0.950  0.000  0.049  0.001
  0.000  0.024  0.500  0.471  0.005
  0.000  0.024  0.500  0.471  0.005
  1.000  0.000  0.000  0.000  0.000
  0.000  0.002  0.000  0.009  0.989
    occupations:
  0.053  0.000  0.000 -0.000 -0.001
  0.000  0.055  0.000 -0.000  0.001
  0.000  0.000  0.055  0.000  0.001
 -0.000 -0.000  0.000  0.041 -0.000
 -0.001  0.001  0.001 -0.000  0.071
   spin  2
    eigenvalues: 
  1.003  1.003  1.003  1.003  1.003
    eigenvectors:
  0.000  0.000  0.001  0.998  0.000
  0.000  0.500  0.499  0.001  0.000
  0.000  0.500  0.499  0.001  0.000
  0.000  0.000  0.000  0.000  1.000
  0.999  0.000  0.000  0.001  0.000
    occupations:
  1.003 -0.000 -0.000 -0.000 -0.000
 -0.000  1.003  0.000  0.000  0.000
 -0.000  0.000  1.003 -0.000  0.000
 -0.000  0.000 -0.000  1.003 -0.000
 -0.000  0.000  0.000 -0.000  1.003
atomic mag. moment =    -4.739913
atom    5   Tr[ns(na)] (up, down, total) =   0.27606  5.01488  5.29094
   spin  1
    eigenvalues: 
  0.042  0.053  0.054  0.055  0.071
    eigenvectors:
  0.006  0.691  0.283  0.018  0.002
  0.000  0.192  0.241  0.563  0.003
  0.000  0.113  0.472  0.410  0.005
  0.993  0.003  0.004  0.000  0.000
  0.000  0.001  0.000  0.009  0.990
    occupations:
  0.054  0.000  0.000 -0.001  0.001
  0.000  0.055  0.001 -0.000  0.001
  0.000  0.001  0.055  0.000  0.001
 -0.001 -0.000  0.000  0.042  0.000
  0.001  0.001  0.001  0.000  0.071
   spin  2
    eigenvalues: 
  1.003  1.003  1.003  1.003  1.004
    eigenvectors:
  0.000  0.001  0.000  0.984  0.015
  0.000  0.987  0.012  0.001  0.000
  0.003  0.011  0.986  0.000  0.000
  0.000  0.000  0.000  0.015  0.985
  0.996  0.001  0.002  0.000  0.000
    occupations:
  1.003  0.000  0.000  0.000  0.000
  0.000  1.003 -0.000  0.000  0.000
  0.000 -0.000  1.003 -0.000  0.000
  0.000  0.000 -0.000  1.004 -0.000
  0.000  0.000  0.000 -0.000  1.003
atomic mag. moment =    -4.738813
atom    6   Tr[ns(na)] (up, down, total) =   0.27606  5.01488  5.29094
   spin  1
    eigenvalues: 
  0.042  0.053  0.054  0.055  0.071
    eigenvectors:
  0.006  0.691  0.283  0.018  0.002
  0.000  0.113  0.472  0.410  0.005
  0.000  0.192  0.241  0.563  0.003
  0.993  0.003  0.004  0.000  0.000
  0.000  0.001  0.000  0.009  0.990
    occupations:
  0.054  0.000  0.000  0.001  0.001
  0.000  0.055  0.001 -0.000  0.001
  0.000  0.001  0.055  0.000  0.001
  0.001 -0.000  0.000  0.042 -0.000
  0.001  0.001  0.001 -0.000  0.071
   spin  2
    eigenvalues: 
  1.003  1.003  1.003  1.003  1.004
    eigenvectors:
  0.000  0.001  0.000  0.984  0.015
  0.003  0.011  0.986  0.000  0.000
  0.000  0.987  0.012  0.001  0.000
  0.000  0.000  0.000  0.015  0.985
  0.996  0.001  0.002  0.000  0.000
    occupations:
  1.003  0.000  0.000 -0.000  0.000
  0.000  1.003 -0.000  0.000  0.000
  0.000 -0.000  1.003 -0.000  0.000
 -0.000  0.000 -0.000  1.004  0.000
  0.000  0.000  0.000  0.000  1.003
atomic mag. moment =    -4.738813
atom    7   Tr[ns(na)] (up, down, total) =   5.01485  0.27302  5.28786
   spin  1
    eigenvalues: 
  1.003  1.003  1.003  1.003  1.004
    eigenvectors:
  0.000  0.000  0.000  1.000  0.000
  0.001  0.499  0.500  0.000  0.000
  0.001  0.499  0.500  0.000  0.000
  0.000  0.000  0.000  0.000  1.000
  0.999  0.001  0.000  0.000  0.000
    occupations:
  1.003  0.000  0.000 -0.000  0.000
  0.000  1.003 -0.000 -0.000 -0.000
  0.000 -0.000  1.003  0.000 -0.000
 -0.000 -0.000  0.000  1.004 -0.000
  0.000 -0.000 -0.000 -0.000  1.003
   spin  2
    eigenvalues: 
  0.041  0.050  0.054  0.054  0.073
    eigenvectors:
  0.000  0.992  0.000  0.008  0.000
  0.000  0.004  0.500  0.496  0.000
  0.000  0.004  0.500  0.496  0.000
  0.999  0.000  0.001  0.000  0.000
  0.000  0.000  0.000  0.000  0.999
    occupations:
  0.050  0.000  0.000 -0.000 -0.000
  0.000  0.054  0.000 -0.000  0.000
  0.000  0.000  0.054  0.000  0.000
 -0.000 -0.000  0.000  0.041 -0.000
 -0.000  0.000  0.000 -0.000  0.073
atomic mag. moment =     4.741827
atom    8   Tr[ns(na)] (up, down, total) =   5.01476  0.27606  5.29081
   spin  1
    eigenvalues: 
  1.003  1.003  1.003  1.003  1.004
    eigenvectors:
  0.001  0.000  0.000  0.999  0.000
  0.000  0.500  0.500  0.000  0.000
  0.000  0.500  0.500  0.000  0.000
  0.000  0.001  0.000  0.000  0.999
  0.999  0.000  0.000  0.001  0.000
    occupations:
  1.003 -0.000 -0.000 -0.000  0.000
 -0.000  1.003  0.000 -0.000  0.000
 -0.000  0.000  1.003  0.000  0.000
 -0.000 -0.000  0.000  1.004 -0.000
  0.000  0.000  0.000 -0.000  1.003
   spin  2
    eigenvalues: 
  0.041  0.053  0.054  0.056  0.072
    eigenvectors:
  0.000  0.930  0.000  0.069  0.000
  0.000  0.035  0.500  0.460  0.005
  0.000  0.035  0.500  0.460  0.005
  1.000  0.000  0.000  0.000  0.000
  0.000  0.000  0.000  0.011  0.989
    occupations:
  0.053  0.001  0.001 -0.000  0.000
  0.001  0.055  0.001 -0.000  0.001
  0.001  0.001  0.055  0.000  0.001
 -0.000 -0.000  0.000  0.041 -0.000
  0.000  0.001  0.001 -0.000  0.072
atomic mag. moment =     4.738699
N of occupied +U levels =   42.315331
 --- exit write_ns ---

     total cpu time spent up to now is       96.1 secs

     total energy              =  -14679.21773858 Ry
     Harris-Foulkes estimate   =  -14669.80938466 Ry
     estimated scf accuracy    <      21.28054976 Ry

     total magnetization       =    10.52 Bohr mag/cell
     absolute magnetization    =    43.54 Bohr mag/cell

     iteration #  2     ecut=    45.00 Ry     beta= 0.10
     Davidson diagonalization with overlap
     ethr =  7.19E-03,  avg # of iterations =  1.0

     total cpu time spent up to now is      133.3 secs

     total energy              =  -14692.14962117 Ry
     Harris-Foulkes estimate   =  -14679.32246319 Ry
     estimated scf accuracy    <      17.16964782 Ry

     total magnetization       =    10.38 Bohr mag/cell
     absolute magnetization    =    43.11 Bohr mag/cell

     iteration #  3     ecut=    45.00 Ry     beta= 0.10
     Davidson diagonalization with overlap
     ethr =  5.80E-03,  avg # of iterations =  2.1

     total cpu time spent up to now is      178.6 secs

     total energy              =  -14693.82997546 Ry
     Harris-Foulkes estimate   =  -14693.76393942 Ry
     estimated scf accuracy    <       4.09830989 Ry

     total magnetization       =     9.29 Bohr mag/cell
     absolute magnetization    =    39.26 Bohr mag/cell

     iteration #  4     ecut=    45.00 Ry     beta= 0.10
     Davidson diagonalization with overlap
     ethr =  1.38E-03,  avg # of iterations =  5.6

     total cpu time spent up to now is      245.4 secs

     total energy              =  -14693.47963517 Ry
     Harris-Foulkes estimate   =  -14693.87099378 Ry
     estimated scf accuracy    <       4.38782095 Ry

     total magnetization       =     9.23 Bohr mag/cell
     absolute magnetization    =    39.03 Bohr mag/cell

     iteration #  5     ecut=    45.00 Ry     beta= 0.10
     Davidson diagonalization with overlap
     ethr =  1.38E-03,  avg # of iterations =  4.6

     total cpu time spent up to now is      310.3 secs

     total energy              =  -14693.84847102 Ry
     Harris-Foulkes estimate   =  -14693.82993809 Ry
     estimated scf accuracy    <       0.32989267 Ry

     total magnetization       =     8.87 Bohr mag/cell
     absolute magnetization    =    38.27 Bohr mag/cell

     iteration #  6     ecut=    45.00 Ry     beta= 0.10
     Davidson diagonalization with overlap
     ethr =  1.11E-04,  avg # of iterations =  3.9

     total cpu time spent up to now is      389.8 secs

     total energy              =  -14693.96050639 Ry
     Harris-Foulkes estimate   =  -14693.94331228 Ry
     estimated scf accuracy    <       0.28005304 Ry

     total magnetization       =     8.40 Bohr mag/cell
     absolute magnetization    =    37.14 Bohr mag/cell

     iteration #  7     ecut=    45.00 Ry     beta= 0.10
     Davidson diagonalization with overlap
     ethr =  9.46E-05,  avg # of iterations =  1.0

     total cpu time spent up to now is      427.1 secs

     total energy              =  -14693.91831071 Ry
     Harris-Foulkes estimate   =  -14693.96744052 Ry
     estimated scf accuracy    <       0.54130654 Ry

     total magnetization       =     8.29 Bohr mag/cell
     absolute magnetization    =    37.09 Bohr mag/cell

     iteration #  8     ecut=    45.00 Ry     beta= 0.10
     Davidson diagonalization with overlap
     ethr =  9.46E-05,  avg # of iterations =  1.3

     total cpu time spent up to now is      465.8 secs

     total energy              =  -14693.93388242 Ry
     Harris-Foulkes estimate   =  -14693.93575063 Ry
     estimated scf accuracy    <       0.14341782 Ry

     total magnetization       =     8.43 Bohr mag/cell
     absolute magnetization    =    37.13 Bohr mag/cell

     iteration #  9     ecut=    45.00 Ry     beta= 0.10
     Davidson diagonalization with overlap
     ethr =  4.85E-05,  avg # of iterations =  1.5

     total cpu time spent up to now is      505.4 secs

     total energy              =  -14693.93021172 Ry
     Harris-Foulkes estimate   =  -14693.93807639 Ry
     estimated scf accuracy    <       0.06881740 Ry

     total magnetization       =     8.40 Bohr mag/cell
     absolute magnetization    =    37.06 Bohr mag/cell

     iteration # 10     ecut=    45.00 Ry     beta= 0.10
     Davidson diagonalization with overlap
     ethr =  2.32E-05,  avg # of iterations =  2.8

     total cpu time spent up to now is      555.0 secs

     total energy              =  -14693.93903449 Ry
     Harris-Foulkes estimate   =  -14693.93690977 Ry
     estimated scf accuracy    <       0.00775560 Ry

     total magnetization       =     8.40 Bohr mag/cell
     absolute magnetization    =    37.05 Bohr mag/cell

     iteration # 11     ecut=    45.00 Ry     beta= 0.10
     Davidson diagonalization with overlap
     ethr =  2.62E-06,  avg # of iterations =  5.1

     total cpu time spent up to now is      619.6 secs

     total energy              =  -14693.94045704 Ry
     Harris-Foulkes estimate   =  -14693.93944891 Ry
     estimated scf accuracy    <       0.00619549 Ry

     total magnetization       =     8.37 Bohr mag/cell
     absolute magnetization    =    36.96 Bohr mag/cell

     iteration # 12     ecut=    45.00 Ry     beta= 0.10
     Davidson diagonalization with overlap
     ethr =  2.09E-06,  avg # of iterations =  1.4

     total cpu time spent up to now is      659.0 secs

     total energy              =  -14693.94164227 Ry
     Harris-Foulkes estimate   =  -14693.94072743 Ry
     estimated scf accuracy    <       0.00194454 Ry

     total magnetization       =     8.36 Bohr mag/cell
     absolute magnetization    =    36.92 Bohr mag/cell

     iteration # 13     ecut=    45.00 Ry     beta= 0.10
     Davidson diagonalization with overlap
     ethr =  6.57E-07,  avg # of iterations =  2.2

     total cpu time spent up to now is      704.3 secs

     total energy              =  -14693.94176818 Ry
     Harris-Foulkes estimate   =  -14693.94184572 Ry
     estimated scf accuracy    <       0.00091574 Ry

     total magnetization       =     8.31 Bohr mag/cell
     absolute magnetization    =    36.85 Bohr mag/cell

     iteration # 14     ecut=    45.00 Ry     beta= 0.10
     Davidson diagonalization with overlap
     ethr =  3.09E-07,  avg # of iterations =  2.1

     total cpu time spent up to now is      748.3 secs

     total energy              =  -14693.94195830 Ry
     Harris-Foulkes estimate   =  -14693.94188101 Ry
     estimated scf accuracy    <       0.00019410 Ry

     total magnetization       =     8.31 Bohr mag/cell
     absolute magnetization    =    36.86 Bohr mag/cell

     iteration # 15     ecut=    45.00 Ry     beta= 0.10
     Davidson diagonalization with overlap
     ethr =  6.56E-08,  avg # of iterations =  2.6

     total cpu time spent up to now is      800.2 secs

     total energy              =  -14693.94198708 Ry
     Harris-Foulkes estimate   =  -14693.94196729 Ry
     estimated scf accuracy    <       0.00006046 Ry

     total magnetization       =     8.30 Bohr mag/cell
     absolute magnetization    =    36.84 Bohr mag/cell

     iteration # 16     ecut=    45.00 Ry     beta= 0.10
     Davidson diagonalization with overlap
     ethr =  2.04E-08,  avg # of iterations =  2.4

     total cpu time spent up to now is      853.1 secs

     total energy              =  -14693.94198806 Ry
     Harris-Foulkes estimate   =  -14693.94198741 Ry
     estimated scf accuracy    <       0.00003435 Ry

     total magnetization       =     8.29 Bohr mag/cell
     absolute magnetization    =    36.83 Bohr mag/cell

     iteration # 17     ecut=    45.00 Ry     beta= 0.10
     Davidson diagonalization with overlap
     ethr =  1.16E-08,  avg # of iterations =  2.5

     total cpu time spent up to now is      899.1 secs

     total energy              =  -14693.94200996 Ry
     Harris-Foulkes estimate   =  -14693.94200167 Ry
     estimated scf accuracy    <       0.00000918 Ry

     total magnetization       =     8.29 Bohr mag/cell
     absolute magnetization    =    36.84 Bohr mag/cell

     iteration # 18     ecut=    45.00 Ry     beta= 0.10
     Davidson diagonalization with overlap
     ethr =  3.10E-09,  avg # of iterations =  2.3

     total cpu time spent up to now is      943.4 secs

     total energy              =  -14693.94201412 Ry
     Harris-Foulkes estimate   =  -14693.94200805 Ry
     estimated scf accuracy    <       0.00000522 Ry

     total magnetization       =     8.29 Bohr mag/cell
     absolute magnetization    =    36.84 Bohr mag/cell

     iteration # 19     ecut=    45.00 Ry     beta= 0.10
     Davidson diagonalization with overlap
     ethr =  1.76E-09,  avg # of iterations =  2.4

     total cpu time spent up to now is      988.5 secs

     total energy              =  -14693.94201466 Ry
     Harris-Foulkes estimate   =  -14693.94201097 Ry
     estimated scf accuracy    <       0.00000173 Ry

     total magnetization       =     8.29 Bohr mag/cell
     absolute magnetization    =    36.83 Bohr mag/cell

     iteration # 20     ecut=    45.00 Ry     beta= 0.10
     Davidson diagonalization with overlap
     ethr =  5.86E-10,  avg # of iterations =  2.7
 
     Magnetic moment per site:
     atom:    1    charge:   13.5449    magn:    4.1947    constr:    0.0000
     atom:    2    charge:   13.5449    magn:    4.1947    constr:    0.0000
     atom:    3    charge:   13.5414    magn:    4.2116    constr:    0.0000
     atom:    4    charge:   13.5361    magn:   -4.2490    constr:    0.0000
     atom:    5    charge:   13.5334    magn:   -4.2693    constr:    0.0000
     atom:    6    charge:   13.5334    magn:   -4.2693    constr:    0.0000
     atom:    7    charge:   13.5425    magn:    4.2012    constr:    0.0000
     atom:    8    charge:   13.5436    magn:    4.2122    constr:    0.0000
     atom:    9    charge:    9.0908    magn:   -0.0126    constr:    0.0000
     atom:   10    charge:    9.0908    magn:   -0.0126    constr:    0.0000
     atom:   11    charge:    9.0921    magn:   -0.0066    constr:    0.0000
     atom:   12    charge:    9.0930    magn:   -0.0287    constr:    0.0000
     atom:   13    charge:    9.0909    magn:    0.0214    constr:    0.0000
     atom:   14    charge:    9.0909    magn:    0.0214    constr:    0.0000
     atom:   15    charge:    9.0903    magn:   -0.0004    constr:    0.0000
     atom:   16    charge:    9.0904    magn:    0.0433    constr:    0.0000
     atom:   17    charge:    9.0901    magn:   -0.0012    constr:    0.0000
     atom:   18    charge:    9.0901    magn:   -0.0012    constr:    0.0000
     atom:   19    charge:    9.0934    magn:   -0.0056    constr:    0.0000
     atom:   20    charge:    9.0927    magn:   -0.0403    constr:    0.0000
     atom:   21    charge:    9.0915    magn:    0.0088    constr:    0.0000
     atom:   22    charge:    9.0915    magn:    0.0088    constr:    0.0000
     atom:   23    charge:    9.0900    magn:    0.0372    constr:    0.0000
     atom:   24    charge:    9.0905    magn:    0.0177    constr:    0.0000

     total cpu time spent up to now is     1036.1 secs

     End of self-consistent calculation
 --- enter write_ns ---
 LDA+U parameters:
U(  1) =   3.1200   J(  1) =   0.7000   B(  1) =   0.0803
U(  2) =   3.1200   J(  2) =   0.7000   B(  2) =   0.0803
atom    1   Tr[ns(na)] (up, down, total) =   4.96520  0.77068  5.73588
   spin  1
    eigenvalues: 
  0.983  0.992  0.992  0.996  1.002
    eigenvectors:
  0.000  0.033  0.002  0.962  0.003
  0.000  0.325  0.670  0.005  0.000
  0.000  0.642  0.328  0.030  0.000
  0.000  0.000  0.000  0.003  0.997
  0.999  0.000  0.001  0.000  0.000
    occupations:
  0.996 -0.000 -0.001 -0.000  0.000
 -0.000  0.992 -0.000  0.000  0.000
 -0.001 -0.000  0.992  0.000 -0.000
 -0.000  0.000  0.000  1.002  0.000
  0.000  0.000 -0.000  0.000  0.983
   spin  2
    eigenvalues: 
  0.067  0.129  0.149  0.157  0.267
    eigenvectors:
  0.000  0.994  0.000  0.003  0.002
  0.000  0.003  0.000  0.990  0.006
  0.000  0.000  0.999  0.000  0.000
  1.000  0.000  0.000  0.000  0.000
  0.000  0.002  0.000  0.006  0.992
    occupations:
  0.130 -0.001  0.000  0.000  0.006
 -0.001  0.158 -0.000  0.001  0.009
  0.000 -0.000  0.149  0.001 -0.002
  0.000  0.001  0.001  0.067 -0.000
  0.006  0.009 -0.002 -0.000  0.266
atomic mag. moment =     4.194518
atom    2   Tr[ns(na)] (up, down, total) =   4.96520  0.77068  5.73588
   spin  1
    eigenvalues: 
  0.983  0.992  0.992  0.996  1.002
    eigenvectors:
  0.000  0.033  0.002  0.962  0.003
  0.000  0.642  0.328  0.030  0.000
  0.000  0.325  0.670  0.005  0.000
  0.000  0.000  0.000  0.003  0.997
  0.999  0.000  0.001  0.000  0.000
    occupations:
  0.996 -0.001 -0.000  0.000  0.000
 -0.001  0.992 -0.000 -0.000 -0.000
 -0.000 -0.000  0.992 -0.000  0.000
  0.000 -0.000 -0.000  1.002 -0.000
  0.000 -0.000  0.000 -0.000  0.983
   spin  2
    eigenvalues: 
  0.067  0.129  0.149  0.157  0.267
    eigenvectors:
  0.000  0.994  0.000  0.003  0.002
  0.000  0.000  0.999  0.000  0.000
  0.000  0.003  0.000  0.990  0.006
  1.000  0.000  0.000  0.000  0.000
  0.000  0.002  0.000  0.006  0.992
    occupations:
  0.130  0.000 -0.001 -0.000  0.006
  0.000  0.149 -0.000 -0.001 -0.002
 -0.001 -0.000  0.158 -0.001  0.009
 -0.000 -0.001 -0.001  0.067  0.000
  0.006 -0.002  0.009  0.000  0.266
atomic mag. moment =     4.194518
atom    3   Tr[ns(na)] (up, down, total) =   4.96610  0.75372  5.71982
   spin  1
    eigenvalues: 
  0.983  0.991  0.993  0.997  1.001
    eigenvectors:
  0.001  0.000  0.044  0.955  0.000
  0.001  0.500  0.477  0.022  0.000
  0.001  0.500  0.477  0.022  0.000
  0.000  0.001  0.000  0.000  0.999
  0.997  0.000  0.002  0.001  0.000
    occupations:
  0.997  0.001  0.001 -0.000  0.000
  0.001  0.992  0.001 -0.000  0.000
  0.001  0.001  0.992  0.000  0.000
 -0.000 -0.000  0.000  1.001 -0.000
  0.000  0.000  0.000 -0.000  0.983
   spin  2
    eigenvalues: 
  0.069  0.126  0.150  0.155  0.254
    eigenvectors:
  0.000  0.939  0.048  0.000  0.013
  0.000  0.026  0.470  0.500  0.004
  0.000  0.026  0.470  0.500  0.004
  1.000  0.000  0.000  0.000  0.000
  0.000  0.009  0.012  0.000  0.980
    occupations:
  0.129  0.005  0.005  0.000 -0.014
  0.005  0.152 -0.003 -0.000 -0.006
  0.005 -0.003  0.152  0.000 -0.006
  0.000 -0.000  0.000  0.069 -0.000
 -0.014 -0.006 -0.006 -0.000  0.252
atomic mag. moment =     4.212377
atom    4   Tr[ns(na)] (up, down, total) =   0.72694  4.96984  5.69678
   spin  1
    eigenvalues: 
  0.069  0.121  0.145  0.146  0.245
    eigenvectors:
  0.000  0.957  0.038  0.000  0.005
  0.000  0.021  0.468  0.500  0.012
  0.000  0.021  0.468  0.500  0.012
  1.000  0.000  0.000  0.000  0.000
  0.000  0.002  0.027  0.000  0.971
    occupations:
  0.123  0.004  0.004 -0.000  0.008
  0.004  0.146  0.000 -0.001  0.011
  0.004  0.000  0.146  0.001  0.011
 -0.000 -0.001  0.001  0.069 -0.000
  0.008  0.011  0.011 -0.000  0.242
   spin  2
    eigenvalues: 
  0.986  0.992  0.993  0.997  1.002
    eigenvectors:
  0.003  0.000  0.049  0.948  0.000
  0.001  0.500  0.474  0.025  0.000
  0.001  0.500  0.474  0.025  0.000
  0.000  0.000  0.000  0.000  1.000
  0.995  0.000  0.003  0.002  0.000
    occupations:
  0.997 -0.001 -0.001 -0.000 -0.001
 -0.001  0.993  0.000 -0.000 -0.000
 -0.001  0.000  0.993  0.000 -0.000
 -0.000 -0.000  0.000  1.002 -0.000
 -0.001 -0.000 -0.000 -0.000  0.986
atomic mag. moment =    -4.242909
atom    5   Tr[ns(na)] (up, down, total) =   0.71196  4.97219  5.68415
   spin  1
    eigenvalues: 
  0.071  0.127  0.136  0.144  0.234
    eigenvectors:
  0.000  0.991  0.002  0.002  0.005
  0.003  0.004  0.605  0.388  0.000
  0.000  0.000  0.380  0.583  0.037
  0.997  0.001  0.002  0.001  0.000
  0.000  0.005  0.012  0.027  0.957
    occupations:
  0.128  0.001  0.002  0.001  0.007
  0.001  0.139  0.004 -0.003  0.000
  0.002  0.004  0.145  0.000  0.018
  0.001 -0.003  0.000  0.071  0.000
  0.007  0.000  0.018  0.000  0.230
   spin  2
    eigenvalues: 
  0.986  0.993  0.994  0.997  1.002
    eigenvectors:
  0.011  0.052  0.002  0.932  0.003
  0.001  0.590  0.362  0.046  0.001
  0.010  0.345  0.633  0.012  0.000
  0.000  0.000  0.000  0.003  0.996
  0.978  0.012  0.003  0.007  0.000
    occupations:
  0.997 -0.001 -0.001  0.000 -0.001
 -0.001  0.994 -0.001 -0.000 -0.000
 -0.001 -0.001  0.994 -0.000 -0.001
  0.000 -0.000 -0.000  1.002  0.000
 -0.001 -0.000 -0.001  0.000  0.986
atomic mag. moment =    -4.260230
atom    6   Tr[ns(na)] (up, down, total) =   0.71196  4.97219  5.68415
   spin  1
    eigenvalues: 
  0.071  0.127  0.136  0.144  0.234
    eigenvectors:
  0.000  0.991  0.002  0.002  0.005
  0.000  0.000  0.380  0.583  0.037
  0.003  0.004  0.605  0.388  0.000
  0.997  0.001  0.002  0.001  0.000
  0.000  0.005  0.012  0.027  0.957
    occupations:
  0.128  0.002  0.001 -0.001  0.007
  0.002  0.145  0.004 -0.000  0.018
  0.001  0.004  0.139  0.003  0.000
 -0.001 -0.000  0.003  0.071 -0.000
  0.007  0.018  0.000 -0.000  0.230
   spin  2
    eigenvalues: 
  0.986  0.993  0.994  0.997  1.002
    eigenvectors:
  0.011  0.052  0.002  0.932  0.003
  0.010  0.345  0.633  0.012  0.000
  0.001  0.590  0.362  0.046  0.001
  0.000  0.000  0.000  0.003  0.996
  0.978  0.012  0.003  0.007  0.000
    occupations:
  0.997 -0.001 -0.001 -0.000 -0.001
 -0.001  0.994 -0.001  0.000 -0.001
 -0.001 -0.001  0.994  0.000 -0.000
 -0.000  0.000  0.000  1.002 -0.000
 -0.001 -0.001 -0.000 -0.000  0.986
atomic mag. moment =    -4.260230
atom    7   Tr[ns(na)] (up, down, total) =   4.96492  0.76408  5.72900
   spin  1
    eigenvalues: 
  0.983  0.992  0.993  0.996  1.001
    eigenvectors:
  0.000  0.000  0.012  0.988  0.000
  0.000  0.500  0.494  0.006  0.000
  0.000  0.500  0.494  0.006  0.000
  0.000  0.000  0.000  0.000  1.000
  1.000  0.000  0.000  0.000  0.000
    occupations:
  0.996  0.000  0.000 -0.000  0.000
  0.000  0.992  0.000  0.000 -0.000
  0.000  0.000  0.992 -0.000 -0.000
 -0.000  0.000 -0.000  1.001 -0.000
  0.000 -0.000 -0.000 -0.000  0.983
   spin  2
    eigenvalues: 
  0.069  0.129  0.151  0.153  0.262
    eigenvectors:
  0.000  0.726  0.273  0.000  0.001
  0.001  0.136  0.351  0.499  0.013
  0.001  0.136  0.351  0.499  0.013
  0.999  0.000  0.000  0.001  0.000
  0.000  0.003  0.025  0.000  0.973
    occupations:
  0.135  0.007  0.007 -0.000 -0.003
  0.007  0.150 -0.003  0.002 -0.013
  0.007 -0.003  0.150 -0.002 -0.013
 -0.000  0.002 -0.002  0.069 -0.000
 -0.003 -0.013 -0.013 -0.000  0.259
atomic mag. moment =     4.200840
atom    8   Tr[ns(na)] (up, down, total) =   4.96731  0.75763  5.72493
   spin  1
    eigenvalues: 
  0.984  0.992  0.994  0.996  1.001
    eigenvectors:
  0.003  0.007  0.000  0.991  0.000
  0.001  0.495  0.500  0.003  0.000
  0.001  0.495  0.500  0.003  0.000
  0.000  0.000  0.000  0.000  1.000
  0.994  0.002  0.000  0.003  0.000
    occupations:
  0.996 -0.000 -0.000 -0.000 -0.001
 -0.000  0.993 -0.001 -0.000  0.000
 -0.000 -0.001  0.993  0.000  0.000
 -0.000 -0.000  0.000  1.001 -0.000
 -0.001  0.000  0.000 -0.000  0.984
   spin  2
    eigenvalues: 
  0.068  0.124  0.150  0.156  0.259
    eigenvectors:
  0.000  0.964  0.034  0.000  0.002
  0.000  0.016  0.479  0.500  0.005
  0.000  0.016  0.479  0.500  0.005
  1.000  0.000  0.000  0.000  0.000
  0.000  0.004  0.008  0.000  0.988
    occupations:
  0.125 -0.003 -0.003 -0.000  0.006
 -0.003  0.153 -0.003 -0.000  0.008
 -0.003 -0.003  0.153  0.000  0.008
 -0.000 -0.000  0.000  0.068 -0.000
  0.006  0.008  0.008 -0.000  0.258
atomic mag. moment =     4.209683
N of occupied +U levels =   45.710587
 --- exit write_ns ---

 ------ SPIN UP ------------


          k = 0.0000 0.0000 0.0000 ( 13629 PWs)   bands (ev):

   -66.4068 -66.3839 -66.3628 -66.3487 -66.3483 -61.9006 -61.9002 -61.8806
   -35.1768 -35.1562 -35.1497 -35.1415 -35.1290 -35.1289 -35.1169 -35.1124
   -35.1063 -35.0971 -35.0803 -35.0795 -35.0758 -35.0601 -35.0598 -30.7302
   -30.7300 -30.7275 -30.7272 -30.7214 -30.7213 -30.7109 -30.7037 -30.7033
     5.9506   7.5529   7.6311   8.0871   8.1567   8.3307   8.4419   8.4696
     8.7050   8.7080   9.0400   9.1575   9.3556   9.3822   9.3970   9.4064
     9.4490   9.4650   9.5396   9.5605   9.5676   9.6034   9.6061   9.6299
     9.6400   9.6430   9.7117   9.8301   9.8642   9.9410   9.9465   9.9505
     9.9688  10.0142  10.0160  10.0384  10.0609  10.1201  10.1879  10.2200
    10.2322  10.2657  10.2669  10.3036  10.3137  10.3373  10.4231  10.4246
    10.4866  10.4915  10.5031  10.5094  10.5204  10.5903  10.6272  10.6638
    10.7285  10.7494  10.8419  10.8751  11.0327  11.0746  11.0861  11.1204
    11.1673  11.1677  11.3299  11.3320  11.3717  11.3860  11.4693  11.5721
    11.7165  11.7940  11.8173  11.8188  11.8257  11.8322  11.8709  11.8969
    11.9626  12.0027  12.0146  12.1457  12.2009  12.2298  12.2684  12.2750
    12.2773  12.3270  12.3556  12.3668  12.3697  12.4200  12.4724  12.5126
    12.5216  12.5300  12.5710  12.6283  12.6811  12.6924  12.6971  12.7666
    12.8391  12.9098  12.9421  13.1168  13.1605  13.2261  13.2558  13.2684
    13.2703  13.2990  14.1268  14.5869  15.0443  15.0945  15.3426  15.8499
    16.2754  16.4549  16.6294  16.7462  16.8526  16.8960  17.1045  17.1118
    17.3117  17.3815  17.4327  17.4997  17.7268  17.8129  17.8318  18.1676
    18.3450  18.5962  19.1133  19.1265  19.3407  19.3744  19.4384  19.4519
    19.4580  19.6787

          k = 0.0000 0.0000-0.5441 ( 13704 PWs)   bands (ev):

   -66.4068 -66.3839 -66.3628 -66.3487 -66.3483 -61.9006 -61.9003 -61.8806
   -35.1768 -35.1563 -35.1497 -35.1415 -35.1290 -35.1289 -35.1169 -35.1124
   -35.1063 -35.0971 -35.0803 -35.0795 -35.0758 -35.0601 -35.0598 -30.7302
   -30.7300 -30.7275 -30.7273 -30.7213 -30.7212 -30.7109 -30.7037 -30.7033
     6.5410   7.5933   8.0891   8.1383   8.4271   8.4644   8.7003   8.7144
     8.7523   8.8162   8.9091   8.9355   8.9756   9.0522   9.0644   9.0900
     9.1252   9.1724   9.2370   9.4099   9.5656   9.6214   9.6287   9.6357
     9.6492   9.6855   9.7002   9.7130   9.7364   9.7646   9.7803   9.8447
     9.8663   9.9019   9.9266   9.9632   9.9669   9.9749  10.0216  10.0820
    10.1122  10.2216  10.2689  10.3267  10.3449  10.4140  10.4614  10.5073
    10.5214  10.5632  10.5927  10.5971  10.6894  10.6922  10.8096  10.8284
    10.8905  10.9271  10.9290  10.9464  10.9546  11.1256  11.2270  11.3393
    11.4298  11.4611  11.5118  11.5481  11.5985  11.6428  11.6629  11.6857
    11.7382  11.7670  11.8466  11.8833  11.8866  11.9115  11.9142  11.9423
    11.9486  11.9739  12.0095  12.0672  12.1078  12.1300  12.1542  12.2132
    12.2268  12.2663  12.2832  12.2963  12.3270  12.3575  12.4487  12.4765
    12.5208  12.6159  12.6249  12.6621  12.6630  12.7212  12.7969  12.8219
    12.8715  12.9047  12.9136  13.0444  13.0722  13.1160  13.1369  13.4501
    13.5323  14.0320  14.0486  14.0734  14.1204  14.2995  15.1829  15.1944
    15.6582  15.6795  15.7052  16.8344  16.9969  17.0797  17.0905  17.1648
    17.1842  17.2866  17.4629  17.5302  17.5551  17.7361  17.7667  17.8215
    17.8353  18.1716  18.3366  18.6005  19.0917  19.2106  19.2474  19.2961
    19.3469  19.5164

          k = 0.0000 0.0000 1.0883 ( 13706 PWs)   bands (ev):

   -66.4068 -66.3839 -66.3628 -66.3486 -66.3483 -61.9006 -61.9003 -61.8806
   -35.1769 -35.1563 -35.1497 -35.1415 -35.1291 -35.1289 -35.1169 -35.1124
   -35.1062 -35.0971 -35.0803 -35.0795 -35.0758 -35.0601 -35.0598 -30.7302
   -30.7300 -30.7276 -30.7273 -30.7213 -30.7212 -30.7110 -30.7037 -30.7033
     7.7913   8.0728   8.1142   8.3551   8.4044   8.4396   8.5092   8.6417
     8.7040   8.7080   8.7154   8.8437   8.9061   8.9908   8.9951   9.1103
     9.1366   9.1810   9.2101   9.4297   9.4311   9.4629   9.5196   9.5344
     9.5677   9.6070   9.6690   9.6863   9.7602   9.7651   9.8272   9.8379
     9.9112   9.9495   9.9498   9.9731  10.0214  10.0244  10.0456  10.1154
    10.1157  10.1534  10.2315  10.2513  10.2618  10.2697  10.2815  10.2956
    10.3058  10.3744  10.3773  10.4512  10.5116  10.5707  10.5854  10.6661
    10.6807  10.7710  10.8798  10.9228  10.9300  11.0053  11.1573  11.3024
    11.3322  11.4133  11.4794  11.4824  11.5741  11.6852  11.7180  11.7398
    11.7768  11.7787  11.8182  11.8238  11.9313  11.9601  11.9868  11.9992
    12.1050  12.1342  12.1618  12.2078  12.2634  12.2679  12.3197  12.3464
    12.3569  12.3901  12.4333  12.5124  12.5309  12.6043  12.6606  12.6941
    12.6942  12.7086  12.7102  12.7424  12.7681  12.9204  12.9512  13.0706
    13.0974  13.1042  13.1086  13.1464  13.2680  13.2698  13.2946  13.3269
    13.3292  13.5351  13.5764  13.6767  13.6888  14.1243  14.7409  15.0468
    15.0938  15.4619  15.9795  16.2317  16.8159  16.9521  17.0902  17.0975
    17.1452  17.3119  17.4635  17.4694  17.5430  17.5889  17.5930  17.7875
    17.8898  18.1678  18.1729  18.3331  18.4470  18.9650  19.1188  19.1782
    19.2038  19.2722

          k =-0.1768-0.1768-0.1360 ( 13673 PWs)   bands (ev):

   -66.4068 -66.3839 -66.3628 -66.3487 -66.3483 -61.9006 -61.9002 -61.8806
   -35.1768 -35.1562 -35.1497 -35.1415 -35.1290 -35.1289 -35.1169 -35.1124
   -35.1063 -35.0971 -35.0803 -35.0795 -35.0758 -35.0601 -35.0598 -30.7302
   -30.7300 -30.7275 -30.7272 -30.7214 -30.7213 -30.7109 -30.7037 -30.7033
     6.1124   7.2914   7.6951   7.7625   8.4083   8.4722   8.4753   8.6339
     8.6468   8.8151   9.1297   9.2299   9.2385   9.2945   9.3255   9.3368
     9.3602   9.4046   9.4583   9.4788   9.4908   9.5309   9.5656   9.5891
     9.6660   9.6763   9.6936   9.7358   9.8576   9.9210   9.9282   9.9983
    10.0274  10.0660  10.0826  10.0916  10.1038  10.1520  10.1817  10.1844
    10.2394  10.2663  10.2990  10.3073  10.3930  10.4275  10.4314  10.4571
    10.4958  10.5069  10.5778  10.6029  10.6371  10.6851  10.6943  10.7246
    10.7310  10.8388  10.9144  10.9321  10.9855  10.9878  11.0624  11.0963
    11.1150  11.1589  11.2595  11.3244  11.3313  11.4293  11.4593  11.5195
    11.6361  11.6840  11.6975  11.7266  11.7678  11.8001  11.8302  11.8388
    11.9097  11.9120  11.9458  11.9731  12.0765  12.1206  12.1408  12.1711
    12.2014  12.2525  12.2876  12.3100  12.3366  12.3393  12.3534  12.4148
    12.4954  12.5435  12.5808  12.5943  12.7273  12.7573  12.7922  12.8124
    12.8445  12.9059  12.9548  12.9725  13.0799  13.1617  13.1617  13.4276
    14.1368  14.2542  14.6309  14.6946  15.3015  15.3936  15.5692  15.6634
    16.2115  16.3860  16.4271  16.6095  16.7567  16.8209  17.1045  17.1707
    17.2638  17.3033  17.4466  17.4666  17.5847  17.7064  17.8874  18.0561
    18.2694  18.3234  18.7028  18.7279  18.8286  18.8330  19.0028  19.1359
    19.2360  19.7353

          k =-0.1768-0.1768-0.6802 ( 13666 PWs)   bands (ev):

   -66.4068 -66.3839 -66.3628 -66.3487 -66.3483 -61.9006 -61.9003 -61.8806
   -35.1768 -35.1563 -35.1497 -35.1415 -35.1290 -35.1289 -35.1169 -35.1124
   -35.1063 -35.0971 -35.0803 -35.0795 -35.0758 -35.0601 -35.0598 -30.7302
   -30.7300 -30.7275 -30.7273 -30.7213 -30.7212 -30.7109 -30.7037 -30.7033
     6.9449   7.0341   8.3072   8.3443   8.3771   8.4125   8.5913   8.7697
     8.7920   8.8078   8.9009   8.9100   8.9333   8.9711   9.1241   9.1352
     9.1879   9.3418   9.3772   9.4372   9.4576   9.4601   9.5321   9.6077
     9.6153   9.6566   9.6826   9.6967   9.7017   9.7311   9.7755   9.7880
     9.8103   9.9010   9.9220   9.9438   9.9548  10.0098  10.0957  10.1497
    10.2876  10.3077  10.3144  10.3563  10.3807  10.4371  10.4380  10.4859
    10.5470  10.5481  10.6388  10.6392  10.7074  10.7219  10.7753  10.7963
    10.8807  10.9330  10.9820  11.0056  11.0834  11.1068  11.1346  11.1962
    11.1993  11.2983  11.3609  11.4182  11.4401  11.5142  11.6081  11.6255
    11.6935  11.7080  11.7347  11.7351  11.7614  11.7648  11.8552  11.9145
    11.9451  11.9946  11.9966  12.0285  12.0879  12.1320  12.1448  12.1803
    12.2236  12.2919  12.2925  12.3005  12.3283  12.3867  12.4378  12.4636
    12.4884  12.5729  12.5755  12.6180  12.6492  12.6844  12.7725  12.8044
    12.9429  12.9445  12.9720  13.0843  13.1036  13.1709  13.2137  13.7427
    13.8994  14.1075  14.3676  14.7178  14.8613  14.8850  15.0595  15.4439
    15.5354  15.9610  16.1163  16.4079  16.5287  16.6149  16.6471  17.1123
    17.1654  17.3153  17.3967  17.4413  17.4880  17.6438  17.6960  17.8010
    17.9339  18.0756  18.1568  18.2510  18.3312  18.6038  18.9706  19.2735
    20.1012  20.4618

          k =-0.1768-0.1768 0.9522 ( 13713 PWs)   bands (ev):

   -66.4068 -66.3839 -66.3628 -66.3486 -66.3483 -61.9006 -61.9003 -61.8806
   -35.1769 -35.1563 -35.1497 -35.1415 -35.1291 -35.1289 -35.1169 -35.1124
   -35.1062 -35.0971 -35.0803 -35.0795 -35.0758 -35.0601 -35.0598 -30.7302
   -30.7300 -30.7276 -30.7273 -30.7213 -30.7212 -30.7110 -30.7037 -30.7033
     7.6467   7.7885   8.2621   8.4557   8.4662   8.4861   8.6079   8.6106
     8.6574   8.7041   8.7863   8.7990   8.8083   8.9330   8.9521   9.0893
     9.1202   9.1763   9.2076   9.3434   9.3856   9.3975   9.4529   9.4569
     9.4716   9.5444   9.5558   9.6572   9.6961   9.7543   9.7935   9.8136
     9.8418   9.8802   9.8931   9.9275  10.0225  10.0243  10.0955  10.0981
    10.1517  10.1727  10.2858  10.3027  10.3523  10.3872  10.3930  10.4175
    10.4839  10.5495  10.5676  10.5915  10.6641  10.7445  10.7474  10.7991
    10.8056  10.8340  10.9805  10.9809  11.0133  11.1843  11.2212  11.3566
    11.3715  11.4354  11.4519  11.5114  11.6030  11.6209  11.7311  11.7903
    11.8630  11.9089  11.9134  11.9586  11.9715  11.9923  11.9925  12.0150
    12.1049  12.1351  12.1368  12.1680  12.1751  12.2317  12.2654  12.2863
    12.3225  12.3354  12.3680  12.4085  12.4564  12.5081  12.5253  12.5846
    12.6058  12.6779  12.7759  12.8135  12.8343  12.8752  12.9087  12.9131
    12.9307  12.9681  12.9737  13.0656  13.0889  13.1508  13.1954  13.3049
    13.3252  13.6095  13.6289  13.7745  13.9099  13.9595  14.1231  14.7992
    14.8423  15.5260  16.0578  16.1384  16.2433  16.6379  17.0998  17.1794
    17.2156  17.3511  17.3660  17.4240  17.5031  17.5898  17.6109  17.7314
    17.9722  18.0922  18.1680  18.5117  18.7876  18.8661  19.0747  19.1389
    19.5429  19.7438

          k =-0.1768-0.1768 0.4081 ( 13683 PWs)   bands (ev):

   -66.4068 -66.3839 -66.3628 -66.3487 -66.3483 -61.9006 -61.9003 -61.8806
   -35.1768 -35.1563 -35.1497 -35.1415 -35.1290 -35.1289 -35.1169 -35.1124
   -35.1063 -35.0971 -35.0803 -35.0795 -35.0758 -35.0601 -35.0598 -30.7302
   -30.7300 -30.7275 -30.7273 -30.7213 -30.7212 -30.7109 -30.7037 -30.7033
     6.4077   7.9544   8.0104   8.0986   8.3160   8.4774   8.5221   8.6484
     8.6616   8.6851   8.8292   8.9776   9.0489   9.0696   9.0918   9.1112
     9.2311   9.2339   9.2868   9.3442   9.4228   9.5404   9.5696   9.5789
     9.6181   9.6531   9.6871   9.6883   9.7230   9.7652   9.8365   9.8435
     9.8893   9.9102   9.9582   9.9803   9.9980  10.0550  10.0955  10.1274
    10.1669  10.2485  10.2550  10.3265  10.3456  10.4111  10.4509  10.4591
    10.5267  10.5383  10.6657  10.6821  10.7477  10.8160  10.8718  10.8856
    10.8926  10.9227  11.0419  11.1398  11.1983  11.3037  11.3210  11.3412
    11.3589  11.3972  11.4744  11.5117  11.5362  11.6419  11.6766  11.7570
    11.8190  11.8667  11.8967  11.9328  11.9483  11.9714  11.9902  11.9946
    12.0126  12.0440  12.1125  12.1440  12.1856  12.1992  12.2057  12.2431
    12.2501  12.2757  12.3048  12.3235  12.3358  12.3371  12.3561  12.4087
    12.4493  12.5211  12.5495  12.6087  12.6397  12.6452  12.7046  12.7624
    12.7917  12.8108  12.8413  12.8962  12.9554  13.0212  13.1985  13.3014
    13.3416  13.4312  13.5178  13.9213  14.0031  14.7687  14.9467  15.3640
    15.6230  15.7456  15.9483  16.7132  16.7931  16.9595  16.9733  17.2340
    17.2571  17.3862  17.4016  17.4553  17.6482  17.7226  17.8622  17.9640
    18.0178  18.2989  18.3608  18.3961  18.8527  19.0480  19.1020  19.3480
    19.8983  20.0965

          k = 0.3536 0.3536 0.2721 ( 13708 PWs)   bands (ev):

   -66.4068 -66.3839 -66.3628 -66.3487 -66.3483 -61.9006 -61.9002 -61.8806
   -35.1768 -35.1562 -35.1497 -35.1415 -35.1290 -35.1289 -35.1169 -35.1124
   -35.1063 -35.0971 -35.0803 -35.0795 -35.0758 -35.0601 -35.0598 -30.7302
   -30.7300 -30.7275 -30.7272 -30.7214 -30.7213 -30.7109 -30.7037 -30.7033
     6.5355   6.6269   8.0214   8.0258   8.1092   8.2232   8.6388   8.7485
     8.7682   8.8566   9.0106   9.0820   9.2718   9.2740   9.3104   9.3176
     9.4060   9.4270   9.4389   9.4723   9.5072   9.5404   9.5415   9.5746
     9.6014   9.6153   9.6656   9.6835   9.7451   9.8809   9.9128   9.9230
     9.9870  10.0616  10.0761  10.1529  10.1629  10.2042  10.2082  10.2807
    10.2844  10.3256  10.3285  10.3419  10.3908  10.4417  10.4487  10.4830
    10.5324  10.5704  10.6081  10.6778  10.6798  10.7003  10.7300  10.7874
    10.8045  10.9256  10.9439  10.9837  11.0055  11.0133  11.0992  11.1833
    11.2223  11.2553  11.2561  11.2718  11.3242  11.3249  11.3662  11.4235
    11.4500  11.5081  11.5386  11.6007  11.6596  11.7128  11.7493  11.7582
    11.8332  11.8658  11.8786  11.9400  12.0191  12.0400  12.1037  12.1333
    12.1427  12.1649  12.2049  12.2650  12.2888  12.3236  12.3725  12.4220
    12.4249  12.5333  12.5357  12.6139  12.6189  12.7217  12.7621  12.7861
    12.8560  12.9783  12.9798  13.0364  13.0726  13.1615  13.1655  14.0541
    14.6535  14.8448  14.9338  15.2928  15.4812  15.5722  15.7243  15.9785
    16.0015  16.0961  16.1425  16.1907  16.7154  17.0232  17.0933  17.1255
    17.1818  17.2536  17.3424  17.4085  17.5560  17.5836  17.6968  17.7891
    17.9913  18.0265  18.1463  18.3228  18.4177  18.4703  18.6314  19.2012
    19.7104  19.7141

          k = 0.3536 0.3536-0.2721 ( 13700 PWs)   bands (ev):

   -66.4068 -66.3839 -66.3628 -66.3487 -66.3483 -61.9006 -61.9003 -61.8806
   -35.1768 -35.1563 -35.1497 -35.1415 -35.1290 -35.1289 -35.1169 -35.1124
   -35.1063 -35.0971 -35.0803 -35.0795 -35.0758 -35.0601 -35.0598 -30.7302
   -30.7300 -30.7275 -30.7273 -30.7213 -30.7212 -30.7109 -30.7037 -30.7033
     6.5791   7.5991   8.0648   8.1153   8.4043   8.5683   8.5952   8.6594
     8.6847   8.7105   8.9000   8.9132   8.9440   9.0124   9.0265   9.2609
     9.2985   9.3429   9.3624   9.3668   9.4107   9.4488   9.5048   9.5232
     9.5586   9.5817   9.6276   9.6320   9.6857   9.7443   9.8088   9.8138
     9.9039   9.9460   9.9645   9.9738  10.0686  10.1638  10.1737  10.2092
    10.2260  10.2915  10.3393  10.3516  10.3754  10.4465  10.4538  10.5089
    10.5445  10.6021  10.6251  10.6862  10.7237  10.7614  10.8286  10.8980
    10.9013  10.9852  10.9855  11.0990  11.1248  11.1768  11.2312  11.2328
    11.2575  11.3530  11.4464  11.4481  11.5434  11.5444  11.5812  11.5969
    11.6310  11.6766  11.7519  11.8003  11.8386  11.8855  11.9387  11.9860
    11.9921  12.0175  12.0321  12.0631  12.0834  12.1559  12.1777  12.1796
    12.2138  12.2273  12.2737  12.2845  12.3107  12.3178  12.3394  12.4278
    12.4353  12.5650  12.5731  12.6214  12.6455  12.6670  12.7806  12.7947
    12.8566  12.9187  12.9191  13.0063  13.0697  13.1794  13.1891  13.2894
    13.4135  13.9199  13.9804  14.4549  14.9438  14.9802  15.3565  15.4698
    15.6422  15.7455  15.8032  16.3736  16.5995  16.6309  16.6996  17.2436
    17.2447  17.3341  17.3418  17.4753  17.5441  17.6315  17.8023  17.8516
    17.9598  18.1335  18.2221  18.2240  18.4428  18.8815  18.9021  19.7173
    19.9754  19.9844

          k = 0.3536 0.3536 1.3603 ( 13692 PWs)   bands (ev):

   -66.4068 -66.3839 -66.3628 -66.3487 -66.3483 -61.9006 -61.9003 -61.8806
   -35.1769 -35.1563 -35.1497 -35.1415 -35.1291 -35.1289 -35.1169 -35.1124
   -35.1062 -35.0971 -35.0803 -35.0795 -35.0758 -35.0601 -35.0598 -30.7302
   -30.7300 -30.7276 -30.7273 -30.7213 -30.7212 -30.7110 -30.7037 -30.7033
     7.5409   7.6571   8.2936   8.5124   8.5139   8.5226   8.5552   8.5623
     8.6307   8.7452   8.8104   8.8414   8.8540   8.8807   8.9231   8.9864
     9.1322   9.1807   9.2191   9.2396   9.2477   9.3308   9.3841   9.4476
     9.4506   9.4781   9.5166   9.5994   9.6878   9.7159   9.7790   9.7929
     9.8372   9.8613   9.9009   9.9439   9.9785   9.9967  10.1161  10.1289
    10.1434  10.1911  10.2436  10.3347  10.3685  10.4196  10.4450  10.5199
    10.5662  10.6083  10.6262  10.7547  10.7592  10.7700  10.8181  10.9314
    11.0099  11.0929  11.1269  11.1283  11.3206  11.3602  11.4151  11.4389
    11.5408  11.5447  11.6796  11.7292  11.8043  11.8153  11.8182  11.8648
    11.9083  11.9128  11.9432  11.9598  11.9823  12.0032  12.0128  12.0177
    12.0703  12.0719  12.0768  12.1012  12.1124  12.1742  12.2025  12.2190
    12.2240  12.2580  12.2741  12.2844  12.2864  12.2978  12.3347  12.4203
    12.4502  12.4695  12.6589  12.6788  12.7224  12.7279  12.7660  12.8233
    12.8600  12.9123  12.9331  12.9491  13.0198  13.1712  13.1957  13.2523
    13.3107  13.5154  13.5452  13.6631  13.8545  14.2863  14.3107  14.8695
    15.0046  15.0814  15.1141  15.6562  16.2403  16.7677  17.0878  17.2255
    17.2712  17.3628  17.3669  17.4471  17.4956  17.5936  17.6135  17.7631
    17.9526  18.0524  18.2532  18.5944  18.6748  19.0952  19.3675  19.6254
    19.9174  20.0965

          k = 0.1768-0.1768 0.0000 ( 13644 PWs)   bands (ev):

   -66.4068 -66.3839 -66.3628 -66.3487 -66.3483 -61.9006 -61.9003 -61.8806
   -35.1768 -35.1562 -35.1497 -35.1415 -35.1290 -35.1289 -35.1169 -35.1124
   -35.1063 -35.0971 -35.0803 -35.0795 -35.0758 -35.0601 -35.0598 -30.7301
   -30.7300 -30.7275 -30.7273 -30.7214 -30.7213 -30.7109 -30.7037 -30.7033
     6.0749   6.9802   8.0576   8.1578   8.2183   8.3356   8.4942   8.5229
     8.6089   8.6265   8.9536   9.0335   9.2436   9.3580   9.4099   9.4480
     9.4685   9.5103   9.5289   9.5549   9.5788   9.5961   9.6214   9.6484
     9.6698   9.6850   9.7260   9.7686   9.8094   9.8237   9.8967   9.9290
     9.9358   9.9471  10.0484  10.0602  10.0978  10.1308  10.1592  10.1910
    10.2301  10.2362  10.2688  10.3094  10.3510  10.3944  10.4210  10.4347
    10.5243  10.5346  10.5797  10.5937  10.5973  10.6606  10.6769  10.7678
    10.8301  10.8547  10.8870  10.9214  11.0684  11.0910  11.1053  11.1276
    11.1520  11.2988  11.3166  11.3454  11.3897  11.4533  11.4569  11.6170
    11.6839  11.7041  11.7535  11.7699  11.8250  11.8512  11.8962  11.9061
    11.9635  11.9681  11.9979  12.1047  12.1616  12.1856  12.2209  12.2238
    12.2644  12.2820  12.3041  12.3345  12.3697  12.3992  12.4019  12.4852
    12.5317  12.5521  12.6064  12.6606  12.6942  12.7100  12.7506  12.7738
    12.7859  12.8297  12.8599  12.8936  12.9675  13.0101  13.1025  13.1553
    13.3287  13.9549  13.9947  14.7295  15.1390  15.2353  15.4789  16.0376
    16.3046  16.4357  16.4818  16.6452  16.6981  16.8582  16.9846  17.1376
    17.2876  17.3434  17.4505  17.4793  17.6283  17.7460  17.9322  18.0619
    18.1904  18.2471  18.6419  18.8444  18.9199  19.2021  19.3467  19.6042
    19.7745  19.8271

          k = 0.1768-0.1768-0.5441 ( 13695 PWs)   bands (ev):

   -66.4068 -66.3839 -66.3628 -66.3486 -66.3483 -61.9006 -61.9003 -61.8806
   -35.1768 -35.1563 -35.1497 -35.1415 -35.1290 -35.1289 -35.1169 -35.1124
   -35.1063 -35.0971 -35.0803 -35.0795 -35.0758 -35.0601 -35.0598 -30.7302
   -30.7300 -30.7275 -30.7273 -30.7213 -30.7212 -30.7109 -30.7037 -30.7033
     6.6560   7.5100   7.6985   8.3094   8.4910   8.5734   8.6795   8.7391
     8.7811   8.8383   8.9176   8.9366   8.9530   9.0082   9.0736   9.1580
     9.1836   9.1940   9.2427   9.3109   9.4419   9.4722   9.4996   9.5402
     9.5546   9.6078   9.6569   9.6834   9.7100   9.7361   9.7709   9.8107
     9.8291   9.8647   9.9080   9.9484   9.9964  10.0189  10.1266  10.2042
    10.2575  10.3395  10.3579  10.4097  10.4345  10.4953  10.5282  10.5775
    10.5964  10.6431  10.6592  10.6955  10.7814  10.8167  10.8563  10.9096
    10.9174  10.9480  10.9580  10.9872  11.0368  11.1272  11.2380  11.3397
    11.3653  11.4015  11.4570  11.4817  11.5323  11.5558  11.5910  11.6105
    11.6827  11.7055  11.7586  11.7936  11.8294  11.8617  11.9024  11.9437
    11.9708  12.0050  12.0294  12.0816  12.1111  12.1349  12.1638  12.1889
    12.2195  12.2562  12.2660  12.2862  12.3231  12.3353  12.3648  12.4244
    12.4623  12.5177  12.5396  12.6147  12.6797  12.6920  12.7175  12.8369
    12.8894  12.9282  12.9666  13.0215  13.1003  13.2366  13.3326  13.3658
    13.5129  13.5782  13.7227  14.2483  14.6783  14.7859  15.1070  15.2047
    15.6831  15.8567  15.9309  16.1692  16.7872  16.8270  16.9668  17.2323
    17.2519  17.3267  17.4210  17.4938  17.5597  17.6167  17.7183  17.8249
    18.0614  18.2413  18.5225  18.6152  18.8878  18.9199  18.9981  19.2833
    19.7126  19.9824

          k = 0.1768-0.1768 1.0883 ( 13696 PWs)   bands (ev):

   -66.4068 -66.3839 -66.3628 -66.3486 -66.3483 -61.9006 -61.9003 -61.8806
   -35.1769 -35.1563 -35.1497 -35.1415 -35.1290 -35.1290 -35.1169 -35.1124
   -35.1062 -35.0971 -35.0803 -35.0795 -35.0758 -35.0601 -35.0598 -30.7302
   -30.7300 -30.7276 -30.7274 -30.7213 -30.7212 -30.7110 -30.7037 -30.7033
     7.8686   8.1454   8.1820   8.3955   8.4202   8.4881   8.5025   8.5684
     8.5919   8.6159   8.6773   8.7649   8.7828   8.8753   8.9920   9.0408
     9.0930   9.2819   9.3865   9.4150   9.4623   9.4848   9.5405   9.5777
     9.5846   9.6145   9.6344   9.6800   9.7231   9.7337   9.7707   9.8139
     9.8359   9.8982   9.9041   9.9158  10.0039  10.0485  10.0586  10.1044
    10.1330  10.1692  10.1763  10.2147  10.2335  10.2815  10.3142  10.3802
    10.3835  10.4056  10.4900  10.5096  10.5157  10.5926  10.6572  10.7223
    10.7442  10.7743  10.8063  10.9240  11.1648  11.2116  11.2659  11.2813
    11.3463  11.4073  11.4167  11.5413  11.5559  11.6621  11.7223  11.7596
    11.7808  11.8147  11.8491  11.8816  11.9256  11.9524  11.9796  11.9891
    12.0755  12.0860  12.1796  12.1933  12.2040  12.2587  12.2761  12.3064
    12.3480  12.3525  12.4045  12.4213  12.4627  12.5045  12.5289  12.5963
    12.6460  12.6722  12.7278  12.7520  12.7712  12.8357  12.8751  12.8873
    12.9309  12.9496  13.0216  13.0794  13.1026  13.1366  13.1651  13.2094
    13.3138  13.8574  13.9117  14.3028  14.3370  14.5525  14.7333  15.2233
    15.2888  15.5023  15.8001  15.8876  16.3482  16.7648  16.9375  16.9642
    17.1986  17.2686  17.3360  17.4303  17.4627  17.5419  17.6236  17.7607
    17.8217  17.9083  17.9974  18.1349  18.3681  18.4395  18.8349  18.9661
    19.1525  19.3762

          k = 0.0000-0.3536-0.1360 ( 13676 PWs)   bands (ev):

   -66.4068 -66.3839 -66.3628 -66.3487 -66.3483 -61.9006 -61.9002 -61.8806
   -35.1768 -35.1562 -35.1497 -35.1415 -35.1290 -35.1289 -35.1169 -35.1124
   -35.1063 -35.0971 -35.0803 -35.0795 -35.0758 -35.0601 -35.0598 -30.7301
   -30.7300 -30.7275 -30.7273 -30.7214 -30.7213 -30.7109 -30.7037 -30.7033
     6.2351   7.1264   7.3943   8.0708   8.2007   8.4446   8.6115   8.6652
     8.8088   8.8337   9.0609   9.1416   9.1808   9.3082   9.3206   9.3371
     9.3605   9.3895   9.4049   9.4239   9.4905   9.5273   9.5631   9.5994
     9.6379   9.6777   9.7315   9.7554   9.8695   9.8980   9.9383   9.9631
     9.9776  10.0268  10.0359  10.0710  10.1076  10.1555  10.1660  10.2060
    10.2558  10.2941  10.3174  10.3717  10.3824  10.4080  10.4449  10.5207
    10.5477  10.5736  10.6479  10.6699  10.7185  10.7404  10.7681  10.8019
    10.8370  10.8630  10.8830  10.9284  10.9705  11.0489  11.1122  11.1471
    11.1647  11.2315  11.2663  11.3105  11.3766  11.4008  11.4250  11.5436
    11.5627  11.6464  11.6908  11.7096  11.7356  11.7715  11.7913  11.8153
    11.8762  11.9111  11.9476  11.9719  12.0301  12.0784  12.1094  12.1594
    12.2190  12.2243  12.2599  12.2887  12.3152  12.3265  12.3861  12.4055
    12.4376  12.5038  12.5433  12.5823  12.6691  12.7490  12.7698  12.8074
    12.8342  12.9098  12.9442  13.0186  13.0656  13.1701  13.4196  13.4562
    13.8359  13.9063  14.7101  14.7702  15.2275  15.5494  15.7542  15.8139
    16.0383  16.2462  16.3475  16.5180  16.7356  16.8284  16.9938  17.1188
    17.2577  17.3778  17.4121  17.4918  17.5623  17.6891  17.8932  17.9888
    18.1299  18.3684  18.4888  18.5379  18.7900  18.9234  19.2611  19.4662
    19.5222  19.9593

          k = 0.0000-0.3536-0.6802 ( 13702 PWs)   bands (ev):

   -66.4068 -66.3839 -66.3628 -66.3486 -66.3483 -61.9006 -61.9003 -61.8806
   -35.1768 -35.1563 -35.1497 -35.1415 -35.1290 -35.1289 -35.1169 -35.1124
   -35.1063 -35.0971 -35.0803 -35.0795 -35.0758 -35.0601 -35.0598 -30.7302
   -30.7300 -30.7275 -30.7273 -30.7213 -30.7212 -30.7109 -30.7037 -30.7033
     7.0517   7.1435   7.8349   7.9070   8.5732   8.6550   8.7772   8.8039
     8.8417   8.8796   8.9413   8.9680   8.9891   9.0087   9.1160   9.1297
     9.2090   9.2270   9.2728   9.3365   9.3758   9.3983   9.4116   9.4496
     9.5182   9.5707   9.6062   9.6300   9.6667   9.7237   9.7575   9.7870
     9.8390   9.9297  10.0261  10.0658  10.0902  10.1411  10.1788  10.2282
    10.2856  10.3336  10.3491  10.3858  10.4202  10.4341  10.4764  10.5767
    10.6010  10.6567  10.6754  10.7015  10.7540  10.7823  10.8250  10.8542
    10.8904  10.9361  10.9707  10.9828  11.0661  11.1217  11.1744  11.1988
    11.2663  11.2993  11.3429  11.3997  11.4228  11.4644  11.5256  11.5517
    11.5636  11.6205  11.7132  11.7406  11.7859  11.8244  11.8527  11.8803
    11.9156  11.9470  12.0158  12.0418  12.0895  12.1165  12.1677  12.1910
    12.2160  12.2310  12.2798  12.3085  12.3269  12.3478  12.3630  12.4024
    12.4309  12.5001  12.5965  12.6187  12.6678  12.7009  12.7325  12.8639
    12.9002  12.9521  13.0147  13.0598  13.1279  13.2073  13.5754  13.7118
    13.8841  14.0254  14.1747  14.3900  14.8217  15.0126  15.2714  15.4634
    15.5709  15.6677  16.0697  16.2158  16.3401  16.6426  16.9693  17.1150
    17.2425  17.3245  17.4063  17.4813  17.5228  17.6413  17.7269  17.8024
    17.9141  17.9556  18.2015  18.3461  18.5348  19.0195  19.3327  19.4480
    19.7987  20.0140

          k = 0.0000-0.3536 0.9522 ( 13693 PWs)   bands (ev):

   -66.4068 -66.3839 -66.3628 -66.3486 -66.3483 -61.9006 -61.9003 -61.8806
   -35.1769 -35.1563 -35.1497 -35.1415 -35.1290 -35.1290 -35.1169 -35.1124
   -35.1062 -35.0971 -35.0803 -35.0795 -35.0758 -35.0601 -35.0598 -30.7302
   -30.7300 -30.7276 -30.7274 -30.7213 -30.7212 -30.7110 -30.7037 -30.7033
     7.7263   7.8526   8.3080   8.3212   8.3515   8.5181   8.5259   8.5616
     8.6560   8.7310   8.7794   8.8265   8.8474   8.9037   8.9928   9.0702
     9.1285   9.2222   9.2882   9.3092   9.3590   9.3899   9.3998   9.4622
     9.4884   9.5269   9.5573   9.6447   9.6665   9.7082   9.7321   9.7758
     9.7954   9.8397   9.8669   9.9442   9.9835  10.0287  10.0446  10.0833
    10.1262  10.2147  10.2489  10.3119  10.3754  10.4380  10.4740  10.4945
    10.5141  10.5616  10.6069  10.6580  10.6953  10.7252  10.8018  10.8146
    10.8747  10.9512  10.9830  11.0742  11.1123  11.1942  11.3167  11.3500
    11.3892  11.4303  11.4688  11.5442  11.6447  11.6725  11.7587  11.7785
    11.8098  11.8805  11.9044  11.9198  11.9502  11.9817  11.9972  12.0345
    12.0550  12.0878  12.1166  12.1223  12.1767  12.2144  12.2419  12.2751
    12.3110  12.3214  12.3384  12.3552  12.3965  12.4126  12.4584  12.5449
    12.5659  12.6008  12.6351  12.7007  12.7637  12.7874  12.8570  12.8810
    12.8975  12.9619  12.9841  13.0108  13.0848  13.1267  13.1694  13.1906
    13.4183  13.7223  13.8238  13.9061  14.0134  14.1264  14.5951  14.9499
    15.3433  15.5662  15.6621  15.7780  16.4898  16.7389  16.8545  17.1317
    17.2384  17.2818  17.3556  17.4267  17.4460  17.5105  17.5809  17.6796
    17.7665  17.8931  18.0954  18.1519  18.3993  18.4990  18.6610  19.2073
    19.5315  20.0090

          k = 0.0000-0.3536 0.4081 ( 13687 PWs)   bands (ev):

   -66.4068 -66.3839 -66.3628 -66.3486 -66.3483 -61.9006 -61.9003 -61.8806
   -35.1768 -35.1563 -35.1497 -35.1415 -35.1290 -35.1289 -35.1169 -35.1124
   -35.1063 -35.0971 -35.0803 -35.0795 -35.0758 -35.0601 -35.0598 -30.7302
   -30.7300 -30.7275 -30.7273 -30.7213 -30.7212 -30.7109 -30.7037 -30.7033
     6.5253   7.3887   8.1920   8.3219   8.4262   8.4519   8.5164   8.5856
     8.6610   8.7317   8.8850   9.0031   9.0327   9.0938   9.1110   9.1510
     9.1857   9.2278   9.2728   9.3424   9.4138   9.4656   9.5215   9.5517
     9.5618   9.6016   9.6197   9.6607   9.6747   9.6982   9.7623   9.8139
     9.8421   9.8595   9.9248   9.9376   9.9837  10.0348  10.0874  10.1521
    10.2618  10.2919  10.3679  10.4059  10.4573  10.5013  10.5388  10.5949
    10.6253  10.6658  10.7302  10.7646  10.8211  10.8636  10.9030  10.9294
    10.9653  11.0094  11.0399  11.0872  11.1608  11.1688  11.2828  11.3511
    11.4252  11.4299  11.4495  11.4961  11.5340  11.6159  11.6700  11.7319
    11.7640  11.8383  11.8644  11.8832  11.9001  11.9383  11.9706  11.9792
    12.0131  12.0396  12.0778  12.0901  12.1389  12.1610  12.1817  12.2212
    12.2341  12.2549  12.2914  12.3030  12.3342  12.3451  12.3665  12.4151
    12.4221  12.4830  12.5506  12.5817  12.6501  12.6616  12.6990  12.7315
    12.7745  12.8048  12.8416  12.8807  12.9114  12.9906  13.0116  13.0343
    13.1000  13.2084  14.3125  14.3721  14.4303  14.8292  14.9896  15.2226
    15.4064  15.8846  16.0280  16.4738  16.6161  16.7371  16.9899  17.0671
    17.2791  17.3511  17.3934  17.4871  17.6168  17.6983  17.7449  17.8419
    18.0271  18.1851  18.3272  18.5543  18.6953  18.8517  19.0967  19.4251
    20.0093  20.1837

          k = 0.5303 0.1768 0.2721 ( 13658 PWs)   bands (ev):

   -66.4068 -66.3839 -66.3628 -66.3487 -66.3483 -61.9006 -61.9002 -61.8806
   -35.1768 -35.1562 -35.1497 -35.1415 -35.1290 -35.1289 -35.1169 -35.1124
   -35.1063 -35.0971 -35.0803 -35.0795 -35.0758 -35.0601 -35.0598 -30.7301
   -30.7300 -30.7275 -30.7273 -30.7214 -30.7213 -30.7109 -30.7037 -30.7033
     6.6541   6.7405   7.5015   7.5703   8.4486   8.5687   8.6610   8.8127
     8.8344   8.8772   9.0558   9.0952   9.2560   9.2671   9.2732   9.3053
     9.3170   9.3301   9.3656   9.3936   9.4557   9.4847   9.5082   9.5501
     9.5896   9.6284   9.6486   9.7514   9.7743   9.8705   9.9335   9.9413
     9.9641  10.0163  10.1253  10.1726  10.1835  10.1938  10.2211  10.2524
    10.2863  10.3103  10.3554  10.4105  10.4653  10.4691  10.5132  10.5287
    10.5771  10.6438  10.6801  10.7152  10.7237  10.7679  10.7768  10.8529
    10.8762  10.9268  10.9517  10.9641  11.0107  11.0258  11.1232  11.1755
    11.2054  11.2468  11.2655  11.2917  11.3289  11.3480  11.3623  11.3748
    11.4118  11.4526  11.5406  11.5590  11.6496  11.6766  11.7345  11.7525
    11.7963  11.8375  11.8746  11.9500  11.9816  12.0043  12.0417  12.0888
    12.1391  12.2181  12.2352  12.2582  12.2909  12.3089  12.3579  12.3899
    12.4424  12.4945  12.5330  12.6519  12.6815  12.7152  12.7805  12.7975
    12.9066  12.9642  12.9918  13.0289  13.0872  13.1551  13.2717  14.0729
    14.5207  14.6477  14.7491  14.9642  15.2935  15.5171  15.5909  15.6982
    15.8983  16.1561  16.2100  16.3687  16.8483  16.9238  17.0694  17.2144
    17.2555  17.2745  17.4653  17.4974  17.5967  17.6488  17.7827  17.8428
    17.9345  18.0450  18.2085  18.3297  18.4360  18.4876  19.5601  19.9522
    19.9674  19.9981

          k = 0.5303 0.1768-0.2721 ( 13683 PWs)   bands (ev):

   -66.4068 -66.3839 -66.3628 -66.3486 -66.3483 -61.9006 -61.9003 -61.8806
   -35.1768 -35.1563 -35.1497 -35.1415 -35.1290 -35.1289 -35.1169 -35.1124
   -35.1063 -35.0971 -35.0803 -35.0795 -35.0758 -35.0601 -35.0598 -30.7302
   -30.7300 -30.7275 -30.7273 -30.7213 -30.7212 -30.7109 -30.7037 -30.7033
     6.6956   7.5342   7.6734   8.2141   8.4862   8.5075   8.6218   8.7216
[...]
    11.8204  11.8633  11.8721  11.9177  11.9623  11.9754  12.0346  12.0482
    12.0750  12.0974  12.1289  12.1845  12.2136  12.2503  12.2531  12.3235
    12.3376  12.3963  12.4359  12.4718  12.6387  12.6487  12.6517  12.7156
    12.7246  12.7711  12.7873  12.7880  12.8585  12.8641  12.8773  14.1132
    14.4243  14.5132  14.6224  15.5155  15.5318  15.7079  15.7489  15.7920
    16.0104  16.1309  16.1433  16.3460  16.6660  16.8499  16.9523  17.0231
    17.0313  17.3110  17.3187  17.4061  17.4250  17.4264  17.5117  17.5233
    17.5661  17.6167  17.6689  17.7710  17.9898  18.0888  18.2352  18.2742
    18.4648  18.4751  18.6787  18.7090  19.1517  19.4268  19.6779  20.0420
    20.1811  20.2810

          k =-0.3536 0.3536-0.5441 ( 13686 PWs)   bands (ev):

   -66.5116 -66.5113 -66.4754 -61.8459 -61.8348 -61.8028 -61.8025 -61.8020
   -35.2802 -35.2802 -35.2539 -35.2413 -35.2412 -35.2335 -35.2335 -35.2013
   -35.1907 -30.6772 -30.6729 -30.6682 -30.6640 -30.6628 -30.6577 -30.6351
   -30.6346 -30.6325 -30.6314 -30.6312 -30.6303 -30.6296 -30.6214 -30.6210
     7.0041   7.0506   7.9969   8.0576   8.6457   8.7201   8.7491   8.8393
     8.8602   8.8858   9.0611   9.0662   9.1362   9.1540   9.2292   9.2647
     9.2647   9.3242   9.3424   9.3788   9.4109   9.4223   9.4513   9.4988
     9.5874   9.7045   9.7084   9.7481   9.7519   9.8119   9.8663   9.8935
     9.9758  10.0054  10.0566  10.0756  10.1392  10.1988  10.3370  10.3743
    10.3916  10.4495  10.5148  10.5306  10.6385  10.6858  10.7905  10.8054
    10.8587  10.8743  10.8965  10.9324  10.9520  11.0152  11.0291  11.0627
    11.0767  11.1049  11.1426  11.1815  11.2321  11.2681  11.3460  11.3837
    11.4021  11.4105  11.4948  11.5752  11.5905  11.6085  11.6864  11.7686
    11.7729  11.8760  11.8900  11.9151  11.9223  11.9371  12.0349  12.0729
    12.1492  12.1604  12.1820  12.2510  12.3004  12.3380  12.3643  12.3757
    12.3912  12.4199  12.4236  12.5266  12.5728  12.6315  12.6871  12.7149
    12.7255  12.8570  12.9165  12.9738  13.1776  13.2115  13.2938  13.6464
    13.6861  14.0354  14.2603  14.6548  14.7420  15.1306  15.3649  15.6688
    15.7116  15.8707  16.1066  16.1621  16.2560  17.1171  17.2031  17.2176
    17.2554  17.3137  17.3368  17.3533  17.3927  17.4513  17.4882  17.5245
    17.5688  17.6456  17.7148  17.7756  17.9434  17.9444  18.0829  18.2525
    18.3430  18.4384  18.6334  18.7032  18.8785  19.0423  19.3990  19.3991
    20.4303  20.5432

          k =-0.3536 0.3536 1.0883 ( 13708 PWs)   bands (ev):

   -66.5116 -66.5113 -66.4754 -61.8459 -61.8348 -61.8028 -61.8025 -61.8020
   -35.2802 -35.2802 -35.2539 -35.2413 -35.2413 -35.2335 -35.2335 -35.2013
   -35.1907 -30.6772 -30.6729 -30.6683 -30.6640 -30.6628 -30.6577 -30.6351
   -30.6347 -30.6325 -30.6314 -30.6312 -30.6304 -30.6296 -30.6213 -30.6210
     8.1011   8.1440   8.3580   8.3653   8.3687   8.4763   8.5857   8.6482
     8.6657   8.7654   8.7979   8.8651   8.8820   8.9533   9.0151   9.1207
     9.1660   9.2048   9.5309   9.5482   9.5488   9.5556   9.6285   9.6735
     9.7170   9.7259   9.7558   9.7697   9.7848   9.8090   9.8487   9.9142
     9.9214   9.9295   9.9528  10.0036  10.0839  10.0891  10.1205  10.1281
    10.1337  10.1938  10.2194  10.3371  10.3584  10.3849  10.4953  10.5019
    10.5566  10.6676  10.6915  10.7197  10.7885  10.7907  10.8589  11.0189
    11.1144  11.2000  11.2776  11.3291  11.3528  11.3650  11.4468  11.4731
    11.5033  11.5433  11.6320  11.6595  11.7567  11.7712  11.8152  11.8731
    11.9073  12.0169  12.0254  12.0369  12.0830  12.0934  12.1438  12.1544
    12.2105  12.2128  12.2704  12.2884  12.3104  12.3178  12.4783  12.4939
    12.4942  12.5353  12.5584  12.5643  12.5733  12.7448  12.7725  12.7788
    12.8011  12.8173  12.9820  13.0046  13.0760  13.1159  13.1527  13.9156
    14.0696  14.0984  14.2665  14.6093  14.6273  14.9611  15.1371  15.3555
    15.4602  15.6192  15.8097  15.8354  16.0068  16.9959  17.0174  17.1221
    17.1752  17.3222  17.3230  17.3731  17.4292  17.4408  17.4976  17.5067
    17.5491  17.6148  17.7112  17.7226  17.8328  17.8450  17.8551  17.8796
    18.0754  18.2077  18.2815  18.2900  18.4242  18.4545  19.1156  19.3080
    19.7785  19.8050

          k =-0.5303 0.1768-0.1360 ( 13660 PWs)   bands (ev):

   -66.5117 -66.5113 -66.4754 -61.8459 -61.8348 -61.8027 -61.8025 -61.8020
   -35.2802 -35.2802 -35.2538 -35.2413 -35.2412 -35.2335 -35.2335 -35.2013
   -35.1907 -30.6772 -30.6729 -30.6682 -30.6640 -30.6627 -30.6577 -30.6351
   -30.6345 -30.6325 -30.6315 -30.6312 -30.6302 -30.6296 -30.6214 -30.6210
     6.5963   6.6516   7.6983   7.7390   8.4193   8.5608   8.8433   8.8665
     8.8985   8.9256   9.0193   9.0651   9.2467   9.2999   9.3704   9.3715
     9.4541   9.4640   9.5247   9.5391   9.5628   9.6336   9.7062   9.7340
     9.7714   9.7851   9.8587   9.9208   9.9371   9.9843   9.9927  10.0329
    10.0488  10.0802  10.0883  10.1037  10.1620  10.2230  10.2724  10.2974
    10.3470  10.3981  10.4032  10.4540  10.5543  10.5725  10.6153  10.6287
    10.7291  10.7397  10.8069  10.8399  10.8511  10.8878  10.9443  10.9552
    11.0339  11.1282  11.1403  11.1712  11.2131  11.2464  11.2645  11.3645
    11.3860  11.4062  11.4326  11.4923  11.5074  11.5638  11.6117  11.6457
    11.6562  11.7210  11.7983  11.8510  11.8744  11.9105  11.9717  12.0190
    12.0445  12.0826  12.1469  12.1604  12.2188  12.2191  12.2677  12.2967
    12.3546  12.4735  12.5418  12.5615  12.6356  12.6382  12.6707  12.7078
    12.7783  12.8089  12.8315  12.9840  13.0353  13.3072  13.4352  13.9566
    14.0809  14.7445  14.8966  15.2718  15.3118  15.3204  15.8137  15.8540
    15.9386  16.0881  16.3587  16.4358  16.6203  16.8522  16.8891  17.1476
    17.2281  17.3156  17.3320  17.4123  17.4476  17.4688  17.4891  17.5249
    17.6185  17.6323  17.7120  17.9724  18.0156  18.0368  18.2653  18.3180
    18.3903  18.4728  18.5363  18.5639  18.9074  19.0482  19.7429  19.8963
    20.5446  20.6168

          k =-0.5303 0.1768-0.6802 ( 13694 PWs)   bands (ev):

   -66.5116 -66.5113 -66.4754 -61.8459 -61.8348 -61.8028 -61.8025 -61.8020
   -35.2802 -35.2802 -35.2539 -35.2413 -35.2412 -35.2335 -35.2335 -35.2013
   -35.1907 -30.6772 -30.6729 -30.6682 -30.6640 -30.6628 -30.6577 -30.6351
   -30.6346 -30.6325 -30.6314 -30.6312 -30.6303 -30.6296 -30.6214 -30.6210
     7.3573   7.4075   7.4934   7.5324   8.7543   8.8356   8.8471   8.9167
     8.9957   8.9958   9.0378   9.0725   9.1417   9.1597   9.2109   9.2264
     9.2481   9.2942   9.3237   9.3440   9.3982   9.4201   9.4959   9.5448
     9.5742   9.5982   9.6118   9.6393   9.7614   9.8056   9.8251   9.9343
    10.0660  10.0842  10.1460  10.1904  10.2698  10.3156  10.3345  10.3844
    10.3940  10.4257  10.4661  10.4937  10.5583  10.5823  10.6606  10.6872
    10.7313  10.7352  10.8615  10.9330  10.9798  11.0125  11.0414  11.0661
    11.0946  11.1335  11.1368  11.1555  11.1720  11.1926  11.2458  11.2969
    11.3159  11.3432  11.3942  11.4819  11.5105  11.5918  11.6509  11.7423
    11.7523  11.8611  11.9037  11.9431  11.9589  12.0242  12.0714  12.0909
    12.1411  12.1706  12.1922  12.2227  12.2768  12.3038  12.3190  12.3472
    12.3751  12.4162  12.4184  12.5501  12.5974  12.6196  12.7127  12.7308
    12.8185  12.8473  12.9384  13.3004  13.5095  13.5441  13.7336  13.7398
    13.9579  14.0044  14.0362  14.5428  14.5711  14.9087  15.1646  15.6644
    15.8776  15.8839  16.0619  16.4802  16.4978  17.1009  17.1184  17.2289
    17.2595  17.3285  17.3610  17.4142  17.4225  17.4715  17.4865  17.5720
    17.6008  17.6436  17.7410  17.7869  17.9218  17.9876  18.1879  18.2378
    18.2685  18.3277  18.6578  18.6802  18.8774  18.9104  19.0677  19.1152
    19.8957  20.0183

          k =-0.5303 0.1768 0.9522 ( 13712 PWs)   bands (ev):

   -66.5116 -66.5113 -66.4754 -61.8459 -61.8348 -61.8027 -61.8025 -61.8020
   -35.2802 -35.2802 -35.2539 -35.2413 -35.2413 -35.2335 -35.2335 -35.2013
   -35.1907 -30.6772 -30.6729 -30.6682 -30.6640 -30.6628 -30.6577 -30.6351
   -30.6347 -30.6325 -30.6314 -30.6312 -30.6304 -30.6296 -30.6213 -30.6210
     7.9832   8.0056   8.0902   8.1170   8.5531   8.6265   8.6320   8.7051
     8.7526   8.8369   8.8498   8.9015   8.9075   8.9879   9.0667   9.1370
     9.2372   9.2532   9.3802   9.3886   9.4939   9.5499   9.5539   9.5833
     9.6267   9.6363   9.6690   9.7377   9.7380   9.7604   9.8073   9.8336
     9.8549   9.9437   9.9656  10.0514  10.0627  10.1478  10.1709  10.1743
    10.2220  10.2290  10.2990  10.3167  10.4912  10.5115  10.6659  10.6954
    10.7456  10.7687  10.7994  10.8410  10.8777  10.9346  11.0088  11.0561
    11.1344  11.1584  11.2427  11.3124  11.3208  11.4180  11.4189  11.5085
    11.5722  11.5995  11.6774  11.6790  11.7387  11.8357  11.8472  11.9231
    11.9286  11.9792  12.0180  12.0430  12.0600  12.0861  12.1228  12.1460
    12.1939  12.1995  12.2202  12.2704  12.2926  12.3155  12.3979  12.4237
    12.4528  12.4736  12.5560  12.5954  12.6198  12.6349  12.7087  12.7544
    12.8605  12.8840  12.9632  13.0330  13.0718  13.0832  13.1759  13.6655
    13.7994  13.8389  14.1240  14.2398  14.3845  14.7271  14.8703  15.3545
    15.3584  15.7959  15.9087  16.1181  16.1837  17.0339  17.0602  17.1477
    17.1951  17.2927  17.3227  17.3653  17.4202  17.4502  17.4618  17.4692
    17.5389  17.5960  17.6259  17.6468  17.7478  17.7536  17.9191  18.1366
    18.1811  18.2338  18.3904  18.4019  18.4324  18.4497  18.5966  18.6512
    19.8909  20.0813

          k =-0.5303 0.1768 0.4081 ( 13670 PWs)   bands (ev):

   -66.5116 -66.5113 -66.4754 -61.8459 -61.8348 -61.8027 -61.8025 -61.8020
   -35.2802 -35.2802 -35.2539 -35.2413 -35.2412 -35.2335 -35.2335 -35.2013
   -35.1907 -30.6772 -30.6729 -30.6682 -30.6640 -30.6628 -30.6577 -30.6351
   -30.6346 -30.6325 -30.6314 -30.6312 -30.6303 -30.6296 -30.6214 -30.6210
     6.8769   6.9272   8.4199   8.4574   8.4704   8.5383   8.6255   8.6598
     8.6861   8.7679   9.0509   9.0580   9.1447   9.2260   9.2273   9.2766
     9.2891   9.3050   9.3962   9.4203   9.4573   9.4650   9.5336   9.5761
     9.6622   9.6714   9.7143   9.7778   9.8096   9.8273   9.8596   9.8670
     9.9128   9.9644  10.0076  10.0667  10.0672  10.1535  10.2992  10.3130
    10.4234  10.4439  10.4568  10.5088  10.6331  10.6665  10.7562  10.7877
    10.8766  10.8842  10.9424  10.9813  11.0133  11.0373  11.0685  11.1078
    11.1150  11.1444  11.2024  11.2209  11.3130  11.3140  11.4260  11.4533
    11.5484  11.5858  11.6380  11.6650  11.6652  11.7063  11.7195  11.7910
    11.8311  11.8315  11.8693  11.8840  11.9350  11.9546  12.0379  12.0989
    12.1083  12.1770  12.1903  12.2193  12.2472  12.3036  12.3252  12.3368
    12.3866  12.4592  12.4658  12.5611  12.5832  12.6097  12.6161  12.6695
    12.7027  12.7938  12.8116  12.8539  12.8639  12.8938  12.9951  13.4198
    13.4468  14.5207  14.8450  14.9015  14.9042  15.1409  15.2043  15.4501
    15.4809  15.6248  15.8429  16.0268  16.3936  17.0053  17.0237  17.1011
    17.2393  17.3303  17.3621  17.3917  17.4039  17.4492  17.4633  17.4697
    17.6135  17.6293  17.7097  17.8473  17.8912  17.9134  18.0390  18.1905
    18.2249  18.2844  18.4447  18.5113  19.4168  19.5055  19.7702  19.8220
    19.8918  19.9557

          k = 0.0000 0.7071 0.2721 ( 13680 PWs)   bands (ev):

   -66.5117 -66.5113 -66.4754 -61.8459 -61.8348 -61.8027 -61.8025 -61.8020
   -35.2802 -35.2802 -35.2538 -35.2413 -35.2412 -35.2335 -35.2335 -35.2013
   -35.1907 -30.6772 -30.6729 -30.6682 -30.6640 -30.6627 -30.6577 -30.6351
   -30.6345 -30.6325 -30.6315 -30.6312 -30.6302 -30.6296 -30.6214 -30.6210
     6.9699   7.0334   7.1203   7.1533   8.6050   8.7464   8.8798   8.9374
     9.0130   9.0242   9.1360   9.1662   9.2336   9.2350   9.2714   9.2787
     9.3801   9.4301   9.4325   9.5251   9.5662   9.5718   9.6115   9.6557
     9.6963   9.7281   9.7641   9.8779  10.0216  10.0428  10.0428  10.0599
    10.0850  10.1092  10.1208  10.1707  10.1735  10.1908  10.2053  10.2220
    10.3523  10.4822  10.5037  10.5756  10.5759  10.6140  10.6989  10.7150
    10.7771  10.7830  10.8146  10.8285  10.8894  10.9652  11.0722  11.0830
    11.0865  11.1369  11.1558  11.1629  11.1796  11.1915  11.1951  11.2557
    11.2766  11.2792  11.3470  11.3701  11.3831  11.4628  11.4708  11.5211
    11.5566  11.6196  11.6916  11.7914  11.8339  11.8926  11.9448  12.0153
    12.0473  12.0719  12.1001  12.1736  12.1871  12.2473  12.2603  12.2844
    12.3571  12.4502  12.5953  12.6087  12.6429  12.6449  12.6981  12.7067
    12.7925  12.8201  12.8721  13.2971  13.4564  13.5623  13.5958  14.1065
    14.2000  14.5932  14.9415  15.0044  15.1934  15.2754  15.3675  15.7021
    15.8478  16.0418  16.3378  16.6584  16.7939  16.8867  16.9290  17.2025
    17.3102  17.3515  17.3798  17.4253  17.4774  17.5169  17.5978  17.6554
    17.6740  17.7202  17.8149  17.9577  18.0298  18.0872  18.1574  18.1855
    18.3712  18.4071  18.5489  18.6875  19.0990  19.1614  19.2679  19.2928
    20.6842  20.7129

          k = 0.0000 0.7071-0.2721 ( 13688 PWs)   bands (ev):

   -66.5117 -66.5113 -66.4754 -61.8459 -61.8348 -61.8027 -61.8025 -61.8020
   -35.2802 -35.2802 -35.2539 -35.2413 -35.2412 -35.2335 -35.2335 -35.2013
   -35.1907 -30.6772 -30.6729 -30.6682 -30.6640 -30.6628 -30.6577 -30.6351
   -30.6346 -30.6325 -30.6314 -30.6312 -30.6303 -30.6296 -30.6214 -30.6210
     7.0391   7.0895   7.9268   7.9653   8.7026   8.7237   8.7684   8.7998
     8.8102   8.8343   9.0830   9.0858   9.1250   9.1399   9.1610   9.2175
     9.2357   9.2984   9.3811   9.4175   9.4735   9.4783   9.5639   9.6040
     9.6405   9.6682   9.7358   9.7437   9.7644   9.8395   9.8876   9.9709
    10.0234  10.0857  10.0945  10.1103  10.1306  10.1902  10.2051  10.2239
    10.2581  10.2912  10.5020  10.5430  10.6005  10.6171  10.7176  10.7396
    10.8154  10.8784  10.9627  10.9699  11.0033  11.0634  11.1048  11.1214
    11.1537  11.1558  11.1705  11.1756  11.2031  11.2362  11.2881  11.3228
    11.4190  11.4388  11.4810  11.5044  11.5635  11.5936  11.6680  11.7173
    11.7789  11.8604  11.8951  11.9412  11.9698  12.0339  12.0774  12.1273
    12.1368  12.1540  12.1967  12.2162  12.2698  12.2732  12.3078  12.3080
    12.3489  12.4183  12.4550  12.6195  12.6243  12.6319  12.6761  12.6910
    12.7777  12.8001  12.8849  13.1537  13.2160  13.2460  13.3933  13.5741
    13.6101  14.2858  14.3703  14.6020  14.6029  15.2704  15.3946  15.4855
    15.6311  15.8485  16.2448  16.4179  16.5073  16.8017  16.8072  17.1931
    17.2853  17.3554  17.3826  17.4154  17.4296  17.4596  17.4885  17.5209
    17.6253  17.6648  17.7201  17.7630  17.9626  17.9753  18.1245  18.1760
    18.2140  18.2798  18.3620  18.3808  18.5306  18.5925  19.1845  19.2603
    20.6138  20.7762

          k = 0.0000 0.7071 1.3603 ( 13696 PWs)   bands (ev):

   -66.5116 -66.5113 -66.4754 -61.8459 -61.8348 -61.8027 -61.8025 -61.8020
   -35.2802 -35.2802 -35.2539 -35.2413 -35.2413 -35.2335 -35.2335 -35.2013
   -35.1907 -30.6772 -30.6729 -30.6682 -30.6640 -30.6628 -30.6577 -30.6351
   -30.6347 -30.6325 -30.6314 -30.6312 -30.6304 -30.6296 -30.6213 -30.6210
     7.8576   7.9167   7.9894   8.0067   8.5872   8.6481   8.6751   8.7314
     8.8248   8.8470   8.8742   8.9602   9.0482   9.0734   9.1097   9.1569
     9.1828   9.1895   9.2592   9.2946   9.4470   9.4906   9.5364   9.5582
     9.5812   9.6085   9.6174   9.6775   9.6874   9.7203   9.7783   9.7816
     9.8482   9.9558  10.0089  10.0612  10.0833  10.1781  10.1955  10.2150
    10.2367  10.2394  10.2804  10.2990  10.5224  10.5306  10.7932  10.8173
    10.9082  10.9600  10.9904  11.0070  11.0338  11.1151  11.1318  11.1480
    11.2313  11.2317  11.2657  11.2831  11.4129  11.4383  11.4889  11.5129
    11.5244  11.6535  11.6617  11.7146  11.8026  11.8803  11.9110  11.9320
    11.9511  11.9821  11.9946  12.0046  12.0262  12.0574  12.0687  12.1277
    12.1312  12.2305  12.2452  12.2712  12.2773  12.3094  12.3242  12.3506
    12.3995  12.4433  12.5113  12.6120  12.6123  12.6471  12.6528  12.6717
    12.6949  12.7192  12.8191  13.0733  13.1187  13.1962  13.2785  13.3685
    13.3907  13.6470  13.7828  14.1381  14.2855  14.5835  14.6565  15.4302
    15.5487  15.8682  16.1200  16.3136  16.4208  16.5888  16.7261  17.0460
    17.2328  17.2587  17.2781  17.3009  17.4087  17.4608  17.4732  17.4980
    17.5416  17.5696  17.5839  17.6321  17.6868  17.7238  17.8742  18.0751
    18.1958  18.2904  18.3449  18.4022  18.4512  18.4607  18.6068  18.6251
    20.6160  20.8267

     the Fermi energy is    15.5636 ev

!    total energy              =  -14693.94202854 Ry
     Harris-Foulkes estimate   =  -14693.94201363 Ry
     estimated scf accuracy    <       0.00000075 Ry

     total all-electron energy =   -626921.537750 Ry

     The total energy is the sum of the following terms:

     one-electron contribution =    -698.47348971 Ry
     hartree contribution      =     651.61215682 Ry
     xc contribution           =    -738.10633308 Ry
     ewald contribution        =   -2207.56121140 Ry
     Hubbard energy            =       0.45787627 Ry
     one-center paw contrib.   =  -11701.87102744 Ry

     total magnetization       =     8.29 Bohr mag/cell
     absolute magnetization    =    36.83 Bohr mag/cell

     convergence has been achieved in  20 iterations

     Writing output data file mnau2.save/
 
     init_run     :     21.07s CPU     21.83s WALL (       1 calls)
     electrons    :    986.19s CPU   1012.13s WALL (       1 calls)

     Called by init_run:
     wfcinit      :     18.79s CPU     19.42s WALL (       1 calls)
     potinit      :      1.17s CPU      1.21s WALL (       1 calls)
     hinit0       :      0.67s CPU      0.70s WALL (       1 calls)

     Called by electrons:
     c_bands      :    858.27s CPU    879.47s WALL (      20 calls)
     sum_band     :    105.47s CPU    108.76s WALL (      20 calls)
     v_of_rho     :      1.80s CPU      1.83s WALL (      21 calls)
     newd         :      6.74s CPU      7.58s WALL (      21 calls)
     PAW_pot      :     14.54s CPU     14.59s WALL (      21 calls)
     mix_rho      :      0.27s CPU      0.30s WALL (      20 calls)

     Called by c_bands:
     init_us_2    :      7.97s CPU      8.02s WALL (    2520 calls)
     cegterg      :    817.65s CPU    838.31s WALL (    1200 calls)

     Called by sum_band:
     sum_band:bec :      0.98s CPU      0.99s WALL (    1200 calls)
     addusdens    :     12.94s CPU     14.09s WALL (      20 calls)

     Called by *egterg:
     h_psi        :    353.28s CPU    363.84s WALL (    4521 calls)
     s_psi        :     53.23s CPU     53.36s WALL (    4581 calls)
     g_psi        :      1.93s CPU      1.94s WALL (    3261 calls)
     cdiaghg      :    303.36s CPU    308.44s WALL (    4461 calls)

     Called by h_psi:
     h_psi:pot    :    335.56s CPU    343.92s WALL (    4521 calls)
     h_psi:calbec :     49.77s CPU     51.91s WALL (    4521 calls)
     vloc_psi     :    234.32s CPU    239.97s WALL (    4521 calls)
     add_vuspsi   :     51.43s CPU     52.01s WALL (    4521 calls)
     vhpsi        :     15.53s CPU     15.60s WALL (    4521 calls)

     General routines
     calbec       :     81.99s CPU     84.80s WALL (   11502 calls)
     fft          :      0.91s CPU      0.93s WALL (     521 calls)
     ffts         :      0.04s CPU      0.05s WALL (      82 calls)
     fftw         :    260.55s CPU    266.63s WALL ( 1167690 calls)
     interpolate  :      0.10s CPU      0.10s WALL (      42 calls)
     davcio       :      0.00s CPU      0.71s WALL (      60 calls)
 
     Parallel routines
     fft_scatt_xy :     32.63s CPU     33.33s WALL ( 1168293 calls)
     fft_scatt_yz :     86.73s CPU     89.01s WALL ( 1168293 calls)

     Hubbard U routines
     new_ns       :      4.68s CPU      4.92s WALL (      20 calls)
     vhpsi        :     15.53s CPU     15.60s WALL (    4521 calls)
 
     PWSCF        : 16m52.62s CPU    17m44.32s WALL

 
   This run was terminated on:  11:59: 5  26Mar2019            

=------------------------------------------------------------------------------=
   JOB DONE.
=------------------------------------------------------------------------------=
