
     Program PWSCF v.6.3MaX starts on 26Mar2019 at 12:19:51 

     This program is part of the open-source Quantum ESPRESSO suite
     for quantum simulation of materials; please cite
         "P. Giannozzi et al., J. Phys.:Condens. Matter 21 395502 (2009);
         "P. Giannozzi et al., J. Phys.:Condens. Matter 29 465901 (2017);
          URL http://www.quantum-espresso.org", 
     in publications or presentations arising from this work. More details at
     http://www.quantum-espresso.org/quote

     Parallel version (MPI), running on    16 processors

     MPI processes distributed on     1 nodes
     R & G space division:  proc/nbgrp/npool/nimage =      16
     Waiting for input...
     Reading input from standard input

     Current dimensions of program PWSCF are:
     Max number of different atomic species (ntypx) = 10
     Max number of k-points (npk) =  40000
     Max angular momentum in pseudopotentials (lmaxx) =  3
     Message from routine read_upf::
     Pseudo file ./pseudo/Mn.pbe-spn-kjpaw_psl.0.3.1.UPF has been successfully fixed on the fly.
To avoid this message in the future you can permanently fix 
 your pseudo files following instructions given in: 
https://gitlab.com/QEF/q-e/blob/master/upftools/how_to_fix_upf.md
               file Mn.pbe-spn-kjpaw_psl.0.3.1.UPF: wavefunction(s)  3P 3D renormalized
     Message from routine read_upf::
     Pseudo file ./pseudo/Mn.pbe-spn-kjpaw_psl.0.3.1.UPF has been successfully fixed on the fly.
To avoid this message in the future you can permanently fix 
 your pseudo files following instructions given in: 
https://gitlab.com/QEF/q-e/blob/master/upftools/how_to_fix_upf.md
               file Mn.pbe-spn-kjpaw_psl.0.3.1.UPF: wavefunction(s)  3P 3D renormalized
     Message from routine read_upf::
     Pseudo file ./pseudo/Au.pbe-dn-kjpaw_psl.0.1.UPF has been successfully fixed on the fly.
To avoid this message in the future you can permanently fix 
 your pseudo files following instructions given in: 
https://gitlab.com/QEF/q-e/blob/master/upftools/how_to_fix_upf.md
               file Au.pbe-dn-kjpaw_psl.0.1.UPF: wavefunction(s)  6S 6P 5D renormalized

     Subspace diagonalization in iterative solution of the eigenvalue problem:
     one sub-group per band group will be used
     scalapack distributed-memory algorithm (size of sub-group:  2*  2 procs)

     Found symmetry operation: I + (  0.2500  0.2500  0.0000)
     This is a supercell, fractional translations are disabled
 
     Parallelization info
     --------------------
     sticks:   dense  smooth     PW     G-vecs:    dense   smooth      PW
     Min         646     290     84                22663     6843    1075
     Max         647     291     85                22664     6844    1077
     Sum       10349    4645   1353               362619   109493   17211
 


     bravais-lattice index     =            0
     lattice parameter (alat)  =      18.0125  a.u.
     unit-cell volume          =    2685.0513 (a.u.)^3
     number of atoms/cell      =           24
     number of atomic types    =            3
     number of electrons       =       296.00
     number of Kohn-Sham states=          178
     kinetic-energy cutoff     =      45.0000  Ry
     charge density cutoff     =     400.0000  Ry
     convergence threshold     =      1.0E-06
     mixing beta               =       0.1000
     number of iterations used =            8  plain     mixing
     Exchange-correlation      = SLA PW PBX PBC ( 1  4  3  4 0 0)

     celldm(1)=  18.012490  celldm(2)=   0.000000  celldm(3)=   0.000000
     celldm(4)=   0.000000  celldm(5)=   0.000000  celldm(6)=   0.000000

     crystal axes: (cart. coord. in units of alat)
               a(1) = (   0.707107  -0.707107   0.000000 )  
               a(2) = (  -0.707107  -0.707107   0.000000 )  
               a(3) = (   0.176777   0.176777  -0.459443 )  

     reciprocal axes: (cart. coord. in units 2 pi/alat)
               b(1) = (  0.707107 -0.707107  0.000000 )  
               b(2) = ( -0.707107 -0.707107 -0.544138 )  
               b(3) = (  0.000000  0.000000 -2.176550 )  


     PseudoPot. # 1 for Mn read from file:
     ./pseudo/Mn.pbe-spn-kjpaw_psl.0.3.1.UPF
     MD5 check sum: 7eef95dd2aae66803482eea66ebeebf1
     Pseudo is Projector augmented-wave + core cor, Zval = 15.0
     Generated using "atomic" code by A. Dal Corso v.5.0.99 svn rev. 10869
     Shape of augmentation charge: PSQ
     Using radial grid of 1187 points,  6 beta functions with: 
                l(1) =   0
                l(2) =   0
                l(3) =   1
                l(4) =   1
                l(5) =   2
                l(6) =   2
     Q(r) pseudized with 0 coefficients 


     PseudoPot. # 2 for Mn read from file:
     ./pseudo/Mn.pbe-spn-kjpaw_psl.0.3.1.UPF
     MD5 check sum: 7eef95dd2aae66803482eea66ebeebf1
     Pseudo is Projector augmented-wave + core cor, Zval = 15.0
     Generated using "atomic" code by A. Dal Corso v.5.0.99 svn rev. 10869
     Shape of augmentation charge: PSQ
     Using radial grid of 1187 points,  6 beta functions with: 
                l(1) =   0
                l(2) =   0
                l(3) =   1
                l(4) =   1
                l(5) =   2
                l(6) =   2
     Q(r) pseudized with 0 coefficients 


     PseudoPot. # 3 for Au read from file:
     ./pseudo/Au.pbe-dn-kjpaw_psl.0.1.UPF
     MD5 check sum: 5c9b92683623e7ae2ab3f8e525febab6
     Pseudo is Projector augmented-wave + core cor, Zval = 11.0
     Generated using "atomic" code by A. Dal Corso v.5.0.2 svn rev. 9415
     Shape of augmentation charge: PSQ
     Using radial grid of 1279 points,  6 beta functions with: 
                l(1) =   0
                l(2) =   0
                l(3) =   1
                l(4) =   1
                l(5) =   2
                l(6) =   2
     Q(r) pseudized with 0 coefficients 


     atomic species   valence    mass     pseudopotential
        Mn1           15.00    54.93800     Mn( 1.00)
        Mn2           15.00    54.93800     Mn( 1.00)
        Au            11.00   196.96600     Au( 1.00)

     Starting magnetic structure 
     atomic species   magnetization
        Mn1          1.000
        Mn2         -1.000
        Au           0.000


     Full LDA+U calculation (l_max = 2) with parameters (eV):
     U(  1) =   3.1200   J(  1) =   0.7000   B(  1) =   0.0803
     U(  2) =   3.1200   J(  2) =   0.7000   B(  2) =   0.0803



      2 Sym. Ops., with inversion, found



   Cartesian axes

     site n.     atom                  positions (alat units)
         1           Mn1 tau(   1) = (   0.3535534  -0.3535534   0.0000000  )
         2           Mn2 tau(   2) = (   0.0000000   0.0000000   0.0000000  )
         3           Mn2 tau(   3) = (   0.0000000  -0.3535534   0.0000000  )
         4           Mn1 tau(   4) = (   0.3535534  -0.7071068   0.0000000  )
         5           Mn1 tau(   5) = (  -0.3535534  -0.3535534   0.0000000  )
         6           Mn2 tau(   6) = (   0.0000000  -0.7071068   0.0000000  )
         7           Mn1 tau(   7) = (  -0.3535534  -0.7071068   0.0000000  )
         8           Mn2 tau(   8) = (   0.0000000  -1.0606602   0.0000000  )
         9           Au  tau(   9) = (  -0.1767767  -0.1767767  -0.1470216  )
        10           Au  tau(  10) = (   0.1767767  -0.5303301  -0.1470216  )
        11           Au  tau(  11) = (  -0.1767767  -0.5303301  -0.1470216  )
        12           Au  tau(  12) = (   0.1767767  -0.8838835  -0.1470216  )
        13           Au  tau(  13) = (  -0.5303301  -0.5303301  -0.1470216  )
        14           Au  tau(  14) = (  -0.1767767  -0.8838835  -0.1470216  )
        15           Au  tau(  15) = (   0.5303301  -0.5303301  -0.1470216  )
        16           Au  tau(  16) = (   0.1767767  -0.1767767  -0.1470216  )
        17           Au  tau(  17) = (   0.3535534  -0.3535534  -0.3124210  )
        18           Au  tau(  18) = (   0.0000000   0.0000000  -0.3124210  )
        19           Au  tau(  19) = (   0.0000000  -0.3535534  -0.3124210  )
        20           Au  tau(  20) = (   0.3535534  -0.7071068  -0.3124210  )
        21           Au  tau(  21) = (  -0.3535534  -0.3535534  -0.3124210  )
        22           Au  tau(  22) = (  -0.0000000  -0.7071068  -0.3124210  )
        23           Au  tau(  23) = (  -0.3535534  -0.7071068  -0.3124210  )
        24           Au  tau(  24) = (   0.0000000  -1.0606602  -0.3124210  )

     number of k points=    36 (tetrahedron method)
                       cart. coord. in units 2pi/alat
        k(    1) = (   0.0000000   0.0000000   0.0000000), wk =   0.0156250
        k(    2) = (   0.0000000   0.0000000  -0.5441376), wk =   0.0312500
        k(    3) = (   0.0000000   0.0000000   1.0882752), wk =   0.0156250
        k(    4) = (  -0.1767767  -0.1767767  -0.1360344), wk =   0.0312500
        k(    5) = (  -0.1767767  -0.1767767  -0.6801720), wk =   0.0312500
        k(    6) = (  -0.1767767  -0.1767767   0.9522408), wk =   0.0312500
        k(    7) = (  -0.1767767  -0.1767767   0.4081032), wk =   0.0312500
        k(    8) = (   0.3535534   0.3535534   0.2720688), wk =   0.0156250
        k(    9) = (   0.3535534   0.3535534  -0.2720688), wk =   0.0312500
        k(   10) = (   0.3535534   0.3535534   1.3603439), wk =   0.0156250
        k(   11) = (   0.1767767  -0.1767767   0.0000000), wk =   0.0312500
        k(   12) = (   0.1767767  -0.1767767  -0.5441376), wk =   0.0312500
        k(   13) = (   0.1767767  -0.1767767   1.0882752), wk =   0.0312500
        k(   14) = (   0.0000000  -0.3535534  -0.1360344), wk =   0.0312500
        k(   15) = (   0.0000000  -0.3535534  -0.6801720), wk =   0.0312500
        k(   16) = (   0.0000000  -0.3535534   0.9522408), wk =   0.0312500
        k(   17) = (   0.0000000  -0.3535534   0.4081032), wk =   0.0312500
        k(   18) = (   0.5303301   0.1767767   0.2720688), wk =   0.0312500
        k(   19) = (   0.5303301   0.1767767  -0.2720688), wk =   0.0312500
        k(   20) = (   0.5303301   0.1767767   1.3603439), wk =   0.0312500
        k(   21) = (  -0.3535534   0.3535534   0.0000000), wk =   0.0156250
        k(   22) = (  -0.3535534   0.3535534  -0.5441376), wk =   0.0312500
        k(   23) = (  -0.3535534   0.3535534   1.0882752), wk =   0.0156250
        k(   24) = (  -0.5303301   0.1767767  -0.1360344), wk =   0.0312500
        k(   25) = (  -0.5303301   0.1767767  -0.6801720), wk =   0.0312500
        k(   26) = (  -0.5303301   0.1767767   0.9522408), wk =   0.0312500
        k(   27) = (  -0.5303301   0.1767767   0.4081032), wk =   0.0312500
        k(   28) = (   0.0000000   0.7071068   0.2720688), wk =   0.0156250
        k(   29) = (   0.0000000   0.7071068  -0.2720688), wk =   0.0312500
        k(   30) = (   0.0000000   0.7071068   1.3603439), wk =   0.0156250
        k(   31) = (   0.1767767  -0.1767767   0.5441376), wk =   0.0312500
        k(   32) = (   0.3535534   0.0000000   0.1360344), wk =   0.0312500
        k(   33) = (   0.3535534   0.0000000   0.6801720), wk =   0.0312500
        k(   34) = (   0.3535534   0.0000000  -0.9522408), wk =   0.0312500
        k(   35) = (   0.3535534   0.0000000  -0.4081032), wk =   0.0312500
        k(   36) = (  -0.1767767  -0.5303301   0.2720688), wk =   0.0312500

     Dense  grid:   362619 G-vectors     FFT dimensions: ( 120, 120,  60)

     Smooth grid:   109493 G-vectors     FFT dimensions: (  80,  80,  45)

     Estimated max dynamical RAM per process >     321.00 MB

     Estimated total dynamical RAM >       5.02 GB
     Generating pointlists ...
     new r_m :   0.1196 (alat units)  2.1549 (a.u.) for type    1
     new r_m :   0.1196 (alat units)  2.1549 (a.u.) for type    2
     new r_m :   0.1196 (alat units)  2.1549 (a.u.) for type    3

     Check: negative/imaginary core charge=   -0.000006    0.000000

     Initial potential from superposition of free atoms

     starting charge  295.99426, renormalised to  296.00000
     Number of +U iterations with fixed ns =  0
     Starting occupations:
 --- enter write_ns ---
 LDA+U parameters:
U(  1) =   3.1200   J(  1) =   0.7000   B(  1) =   0.0803
U(  2) =   3.1200   J(  2) =   0.7000   B(  2) =   0.0803
atom    1   Tr[ns(na)] (up, down, total) =   5.00000  0.00000  5.00000
   spin  1
    eigenvalues: 
  1.000  1.000  1.000  1.000  1.000
    eigenvectors:
  1.000  0.000  0.000  0.000  0.000
  0.000  1.000  0.000  0.000  0.000
  0.000  0.000  1.000  0.000  0.000
  0.000  0.000  0.000  1.000  0.000
  0.000  0.000  0.000  0.000  1.000
    occupations:
  1.000  0.000  0.000  0.000  0.000
  0.000  1.000  0.000  0.000  0.000
  0.000  0.000  1.000  0.000  0.000
  0.000  0.000  0.000  1.000  0.000
  0.000  0.000  0.000  0.000  1.000
   spin  2
    eigenvalues: 
  0.000  0.000  0.000  0.000  0.000
    eigenvectors:
  1.000  0.000  0.000  0.000  0.000
  0.000  1.000  0.000  0.000  0.000
  0.000  0.000  1.000  0.000  0.000
  0.000  0.000  0.000  1.000  0.000
  0.000  0.000  0.000  0.000  1.000
    occupations:
  0.000  0.000  0.000  0.000  0.000
  0.000  0.000  0.000  0.000  0.000
  0.000  0.000  0.000  0.000  0.000
  0.000  0.000  0.000  0.000  0.000
  0.000  0.000  0.000  0.000  0.000
atomic mag. moment =     5.000000
atom    2   Tr[ns(na)] (up, down, total) =   0.00000  5.00000  5.00000
   spin  1
    eigenvalues: 
  0.000  0.000  0.000  0.000  0.000
    eigenvectors:
  1.000  0.000  0.000  0.000  0.000
  0.000  1.000  0.000  0.000  0.000
  0.000  0.000  1.000  0.000  0.000
  0.000  0.000  0.000  1.000  0.000
  0.000  0.000  0.000  0.000  1.000
    occupations:
  0.000  0.000  0.000  0.000  0.000
  0.000  0.000  0.000  0.000  0.000
  0.000  0.000  0.000  0.000  0.000
  0.000  0.000  0.000  0.000  0.000
  0.000  0.000  0.000  0.000  0.000
   spin  2
    eigenvalues: 
  1.000  1.000  1.000  1.000  1.000
    eigenvectors:
  1.000  0.000  0.000  0.000  0.000
  0.000  1.000  0.000  0.000  0.000
  0.000  0.000  1.000  0.000  0.000
  0.000  0.000  0.000  1.000  0.000
  0.000  0.000  0.000  0.000  1.000
    occupations:
  1.000  0.000  0.000  0.000  0.000
  0.000  1.000  0.000  0.000  0.000
  0.000  0.000  1.000  0.000  0.000
  0.000  0.000  0.000  1.000  0.000
  0.000  0.000  0.000  0.000  1.000
atomic mag. moment =    -5.000000
atom    3   Tr[ns(na)] (up, down, total) =   0.00000  5.00000  5.00000
   spin  1
    eigenvalues: 
  0.000  0.000  0.000  0.000  0.000
    eigenvectors:
  1.000  0.000  0.000  0.000  0.000
  0.000  1.000  0.000  0.000  0.000
  0.000  0.000  1.000  0.000  0.000
  0.000  0.000  0.000  1.000  0.000
  0.000  0.000  0.000  0.000  1.000
    occupations:
  0.000  0.000  0.000  0.000  0.000
  0.000  0.000  0.000  0.000  0.000
  0.000  0.000  0.000  0.000  0.000
  0.000  0.000  0.000  0.000  0.000
  0.000  0.000  0.000  0.000  0.000
   spin  2
    eigenvalues: 
  1.000  1.000  1.000  1.000  1.000
    eigenvectors:
  1.000  0.000  0.000  0.000  0.000
  0.000  1.000  0.000  0.000  0.000
  0.000  0.000  1.000  0.000  0.000
  0.000  0.000  0.000  1.000  0.000
  0.000  0.000  0.000  0.000  1.000
    occupations:
  1.000  0.000  0.000  0.000  0.000
  0.000  1.000  0.000  0.000  0.000
  0.000  0.000  1.000  0.000  0.000
  0.000  0.000  0.000  1.000  0.000
  0.000  0.000  0.000  0.000  1.000
atomic mag. moment =    -5.000000
atom    4   Tr[ns(na)] (up, down, total) =   5.00000  0.00000  5.00000
   spin  1
    eigenvalues: 
  1.000  1.000  1.000  1.000  1.000
    eigenvectors:
  1.000  0.000  0.000  0.000  0.000
  0.000  1.000  0.000  0.000  0.000
  0.000  0.000  1.000  0.000  0.000
  0.000  0.000  0.000  1.000  0.000
  0.000  0.000  0.000  0.000  1.000
    occupations:
  1.000  0.000  0.000  0.000  0.000
  0.000  1.000  0.000  0.000  0.000
  0.000  0.000  1.000  0.000  0.000
  0.000  0.000  0.000  1.000  0.000
  0.000  0.000  0.000  0.000  1.000
   spin  2
    eigenvalues: 
  0.000  0.000  0.000  0.000  0.000
    eigenvectors:
  1.000  0.000  0.000  0.000  0.000
  0.000  1.000  0.000  0.000  0.000
  0.000  0.000  1.000  0.000  0.000
  0.000  0.000  0.000  1.000  0.000
  0.000  0.000  0.000  0.000  1.000
    occupations:
  0.000  0.000  0.000  0.000  0.000
  0.000  0.000  0.000  0.000  0.000
  0.000  0.000  0.000  0.000  0.000
  0.000  0.000  0.000  0.000  0.000
  0.000  0.000  0.000  0.000  0.000
atomic mag. moment =     5.000000
atom    5   Tr[ns(na)] (up, down, total) =   5.00000  0.00000  5.00000
   spin  1
    eigenvalues: 
  1.000  1.000  1.000  1.000  1.000
    eigenvectors:
  1.000  0.000  0.000  0.000  0.000
  0.000  1.000  0.000  0.000  0.000
  0.000  0.000  1.000  0.000  0.000
  0.000  0.000  0.000  1.000  0.000
  0.000  0.000  0.000  0.000  1.000
    occupations:
  1.000  0.000  0.000  0.000  0.000
  0.000  1.000  0.000  0.000  0.000
  0.000  0.000  1.000  0.000  0.000
  0.000  0.000  0.000  1.000  0.000
  0.000  0.000  0.000  0.000  1.000
   spin  2
    eigenvalues: 
  0.000  0.000  0.000  0.000  0.000
    eigenvectors:
  1.000  0.000  0.000  0.000  0.000
  0.000  1.000  0.000  0.000  0.000
  0.000  0.000  1.000  0.000  0.000
  0.000  0.000  0.000  1.000  0.000
  0.000  0.000  0.000  0.000  1.000
    occupations:
  0.000  0.000  0.000  0.000  0.000
  0.000  0.000  0.000  0.000  0.000
  0.000  0.000  0.000  0.000  0.000
  0.000  0.000  0.000  0.000  0.000
  0.000  0.000  0.000  0.000  0.000
atomic mag. moment =     5.000000
atom    6   Tr[ns(na)] (up, down, total) =   0.00000  5.00000  5.00000
   spin  1
    eigenvalues: 
  0.000  0.000  0.000  0.000  0.000
    eigenvectors:
  1.000  0.000  0.000  0.000  0.000
  0.000  1.000  0.000  0.000  0.000
  0.000  0.000  1.000  0.000  0.000
  0.000  0.000  0.000  1.000  0.000
  0.000  0.000  0.000  0.000  1.000
    occupations:
  0.000  0.000  0.000  0.000  0.000
  0.000  0.000  0.000  0.000  0.000
  0.000  0.000  0.000  0.000  0.000
  0.000  0.000  0.000  0.000  0.000
  0.000  0.000  0.000  0.000  0.000
   spin  2
    eigenvalues: 
  1.000  1.000  1.000  1.000  1.000
    eigenvectors:
  1.000  0.000  0.000  0.000  0.000
  0.000  1.000  0.000  0.000  0.000
  0.000  0.000  1.000  0.000  0.000
  0.000  0.000  0.000  1.000  0.000
  0.000  0.000  0.000  0.000  1.000
    occupations:
  1.000  0.000  0.000  0.000  0.000
  0.000  1.000  0.000  0.000  0.000
  0.000  0.000  1.000  0.000  0.000
  0.000  0.000  0.000  1.000  0.000
  0.000  0.000  0.000  0.000  1.000
atomic mag. moment =    -5.000000
atom    7   Tr[ns(na)] (up, down, total) =   5.00000  0.00000  5.00000
   spin  1
    eigenvalues: 
  1.000  1.000  1.000  1.000  1.000
    eigenvectors:
  1.000  0.000  0.000  0.000  0.000
  0.000  1.000  0.000  0.000  0.000
  0.000  0.000  1.000  0.000  0.000
  0.000  0.000  0.000  1.000  0.000
  0.000  0.000  0.000  0.000  1.000
    occupations:
  1.000  0.000  0.000  0.000  0.000
  0.000  1.000  0.000  0.000  0.000
  0.000  0.000  1.000  0.000  0.000
  0.000  0.000  0.000  1.000  0.000
  0.000  0.000  0.000  0.000  1.000
   spin  2
    eigenvalues: 
  0.000  0.000  0.000  0.000  0.000
    eigenvectors:
  1.000  0.000  0.000  0.000  0.000
  0.000  1.000  0.000  0.000  0.000
  0.000  0.000  1.000  0.000  0.000
  0.000  0.000  0.000  1.000  0.000
  0.000  0.000  0.000  0.000  1.000
    occupations:
  0.000  0.000  0.000  0.000  0.000
  0.000  0.000  0.000  0.000  0.000
  0.000  0.000  0.000  0.000  0.000
  0.000  0.000  0.000  0.000  0.000
  0.000  0.000  0.000  0.000  0.000
atomic mag. moment =     5.000000
atom    8   Tr[ns(na)] (up, down, total) =   0.00000  5.00000  5.00000
   spin  1
    eigenvalues: 
  0.000  0.000  0.000  0.000  0.000
    eigenvectors:
  1.000  0.000  0.000  0.000  0.000
  0.000  1.000  0.000  0.000  0.000
  0.000  0.000  1.000  0.000  0.000
  0.000  0.000  0.000  1.000  0.000
  0.000  0.000  0.000  0.000  1.000
    occupations:
  0.000  0.000  0.000  0.000  0.000
  0.000  0.000  0.000  0.000  0.000
  0.000  0.000  0.000  0.000  0.000
  0.000  0.000  0.000  0.000  0.000
  0.000  0.000  0.000  0.000  0.000
   spin  2
    eigenvalues: 
  1.000  1.000  1.000  1.000  1.000
    eigenvectors:
  1.000  0.000  0.000  0.000  0.000
  0.000  1.000  0.000  0.000  0.000
  0.000  0.000  1.000  0.000  0.000
  0.000  0.000  0.000  1.000  0.000
  0.000  0.000  0.000  0.000  1.000
    occupations:
  1.000  0.000  0.000  0.000  0.000
  0.000  1.000  0.000  0.000  0.000
  0.000  0.000  1.000  0.000  0.000
  0.000  0.000  0.000  1.000  0.000
  0.000  0.000  0.000  0.000  1.000
atomic mag. moment =    -5.000000
N of occupied +U levels =   40.000000
 --- exit write_ns ---
 Atomic wfc used for LDA+U Projector are NOT orthogonalized
     Starting wfcs are  224 randomized atomic wfcs
     Checking if some PAW data can be deallocated... 

     total cpu time spent up to now is       28.4 secs

     Self-consistent Calculation

     iteration #  1     ecut=    45.00 Ry     beta= 0.10
     Davidson diagonalization with overlap
     ethr =  1.00E-02,  avg # of iterations =  4.5
 --- enter write_ns ---
 LDA+U parameters:
U(  1) =   3.1200   J(  1) =   0.7000   B(  1) =   0.0803
U(  2) =   3.1200   J(  2) =   0.7000   B(  2) =   0.0803
atom    1   Tr[ns(na)] (up, down, total) =   5.01487  0.27461  5.28948
   spin  1
    eigenvalues: 
  1.003  1.003  1.003  1.003  1.004
    eigenvectors:
  0.000  0.000  0.000  0.986  0.014
  0.000  0.998  0.001  0.000  0.000
  0.012  0.001  0.987  0.000  0.000
  0.000  0.000  0.000  0.014  0.986
  0.988  0.000  0.012  0.000  0.000
    occupations:
  1.003 -0.000 -0.000  0.000  0.000
 -0.000  1.003  0.000  0.000  0.000
 -0.000  0.000  1.003  0.000  0.000
  0.000  0.000  0.000  1.004  0.000
  0.000  0.000  0.000  0.000  1.003
   spin  2
    eigenvalues: 
  0.041  0.052  0.055  0.056  0.071
    eigenvectors:
  0.025  0.890  0.017  0.068  0.001
  0.000  0.080  0.041  0.877  0.001
  0.000  0.005  0.933  0.052  0.011
  0.975  0.024  0.000  0.001  0.000
  0.000  0.001  0.009  0.002  0.988
    occupations:
  0.052  0.001 -0.000 -0.002 -0.000
  0.001  0.055  0.000  0.000  0.001
 -0.000  0.000  0.055  0.000  0.002
 -0.002  0.000  0.000  0.041 -0.000
 -0.000  0.001  0.002 -0.000  0.071
atomic mag. moment =     4.740255
atom    2   Tr[ns(na)] (up, down, total) =   0.27529  5.01495  5.29024
   spin  1
    eigenvalues: 
  0.041  0.052  0.055  0.056  0.071
    eigenvectors:
  0.026  0.873  0.013  0.087  0.001
  0.000  0.097  0.031  0.870  0.001
  0.000  0.004  0.945  0.040  0.012
  0.974  0.025  0.000  0.001  0.000
  0.000  0.001  0.010  0.002  0.986
    occupations:
  0.052  0.001 -0.000 -0.002 -0.001
  0.001  0.055  0.000  0.000  0.001
 -0.000  0.000  0.055  0.000  0.002
 -0.002  0.000  0.000  0.041 -0.000
 -0.001  0.001  0.002 -0.000  0.071
   spin  2
    eigenvalues: 
  1.003  1.003  1.003  1.003  1.004
    eigenvectors:
  0.001  0.000  0.000  0.979  0.019
  0.000  0.987  0.013  0.000  0.000
  0.002  0.013  0.985  0.000  0.000
  0.000  0.000  0.000  0.020  0.980
  0.997  0.000  0.002  0.001  0.000
    occupations:
  1.003 -0.000  0.000  0.000 -0.000
 -0.000  1.003 -0.000 -0.000 -0.000
  0.000 -0.000  1.003  0.000  0.000
  0.000 -0.000  0.000  1.004  0.000
 -0.000 -0.000  0.000  0.000  1.003
atomic mag. moment =    -4.739656
atom    3   Tr[ns(na)] (up, down, total) =   0.27573  5.01486  5.29059
   spin  1
    eigenvalues: 
  0.041  0.052  0.055  0.056  0.071
    eigenvectors:
  0.027  0.878  0.010  0.085  0.000
  0.000  0.093  0.020  0.886  0.001
  0.000  0.003  0.959  0.026  0.012
  0.973  0.026  0.000  0.001  0.000
  0.000  0.001  0.011  0.002  0.986
    occupations:
  0.052  0.001 -0.000 -0.002 -0.000
  0.001  0.056  0.000  0.000  0.001
 -0.000  0.000  0.055  0.000  0.002
 -0.002  0.000  0.000  0.041 -0.000
 -0.000  0.001  0.002 -0.000  0.071
   spin  2
    eigenvalues: 
  1.003  1.003  1.003  1.003  1.004
    eigenvectors:
  0.000  0.001  0.000  0.970  0.029
  0.000  0.978  0.021  0.001  0.000
  0.003  0.021  0.976  0.000  0.000
  0.000  0.000  0.000  0.029  0.970
  0.997  0.000  0.002  0.000  0.000
    occupations:
  1.003 -0.000  0.000  0.000  0.000
 -0.000  1.003  0.000  0.000 -0.000
  0.000  0.000  1.003  0.000  0.000
  0.000  0.000  0.000  1.004 -0.000
  0.000 -0.000  0.000 -0.000  1.003
atomic mag. moment =    -4.739128
atom    4   Tr[ns(na)] (up, down, total) =   5.01481  0.27542  5.29023
   spin  1
    eigenvalues: 
  1.003  1.003  1.003  1.003  1.004
    eigenvectors:
  0.000  0.000  0.000  0.978  0.021
  0.000  0.992  0.007  0.000  0.000
  0.001  0.007  0.992  0.000  0.000
  0.000  0.000  0.000  0.021  0.978
  0.999  0.000  0.001  0.000  0.000
    occupations:
  1.003 -0.000  0.000  0.000  0.000
 -0.000  1.003  0.000  0.000 -0.000
  0.000  0.000  1.003 -0.000  0.000
  0.000  0.000 -0.000  1.004 -0.000
  0.000 -0.000  0.000 -0.000  1.003
   spin  2
    eigenvalues: 
  0.041  0.052  0.055  0.056  0.071
    eigenvectors:
  0.027  0.879  0.013  0.080  0.000
  0.000  0.091  0.035  0.872  0.001
  0.000  0.003  0.942  0.044  0.011
  0.973  0.026  0.000  0.001  0.000
  0.000  0.001  0.010  0.002  0.988
    occupations:
  0.052  0.001 -0.000 -0.002 -0.000
  0.001  0.055  0.000  0.000  0.001
 -0.000  0.000  0.055  0.000  0.002
 -0.002  0.000  0.000  0.041 -0.000
 -0.000  0.001  0.002 -0.000  0.071
atomic mag. moment =     4.739382
atom    5   Tr[ns(na)] (up, down, total) =   5.01487  0.27582  5.29068
   spin  1
    eigenvalues: 
  1.003  1.003  1.003  1.003  1.004
    eigenvectors:
  0.000  0.001  0.001  0.947  0.051
  0.003  0.988  0.008  0.001  0.000
  0.004  0.008  0.987  0.001  0.000
  0.000  0.001  0.000  0.051  0.948
  0.992  0.003  0.005  0.000  0.000
    occupations:
  1.003 -0.000  0.000  0.000 -0.000
 -0.000  1.003  0.000  0.000  0.000
  0.000  0.000  1.003  0.000  0.000
  0.000  0.000  0.000  1.004  0.000
 -0.000  0.000  0.000  0.000  1.003
   spin  2
    eigenvalues: 
  0.041  0.052  0.055  0.056  0.071
    eigenvectors:
  0.026  0.891  0.007  0.075  0.001
  0.000  0.080  0.011  0.908  0.001
  0.000  0.003  0.971  0.015  0.011
  0.973  0.025  0.000  0.001  0.000
  0.000  0.001  0.010  0.001  0.988
    occupations:
  0.052  0.001 -0.000 -0.002 -0.000
  0.001  0.056  0.000  0.000  0.001
 -0.000  0.000  0.055  0.000  0.002
 -0.002  0.000  0.000  0.041 -0.000
 -0.000  0.001  0.002 -0.000  0.071
atomic mag. moment =     4.739047
atom    6   Tr[ns(na)] (up, down, total) =   0.27521  5.01509  5.29030
   spin  1
    eigenvalues: 
  0.041  0.052  0.055  0.056  0.071
    eigenvectors:
  0.026  0.891  0.009  0.073  0.000
  0.000  0.080  0.023  0.895  0.001
  0.000  0.003  0.957  0.028  0.012
  0.974  0.025  0.000  0.001  0.000
  0.000  0.001  0.011  0.002  0.986
    occupations:
  0.052  0.001 -0.000 -0.002 -0.000
  0.001  0.056  0.000  0.000  0.001
 -0.000  0.000  0.055  0.000  0.002
 -0.002  0.000  0.000  0.041  0.000
 -0.000  0.001  0.002  0.000  0.071
   spin  2
    eigenvalues: 
  1.003  1.003  1.003  1.003  1.004
    eigenvectors:
  0.000  0.000  0.004  0.967  0.028
  0.000  0.927  0.073  0.000  0.000
  0.010  0.072  0.914  0.005  0.000
  0.000  0.000  0.000  0.028  0.972
  0.990  0.001  0.009  0.000  0.000
    occupations:
  1.003  0.000  0.000  0.000 -0.000
  0.000  1.003  0.000 -0.000  0.000
  0.000  0.000  1.003 -0.000  0.000
  0.000 -0.000 -0.000  1.004  0.000
 -0.000  0.000  0.000  0.000  1.003
atomic mag. moment =    -4.739882
atom    7   Tr[ns(na)] (up, down, total) =   5.01481  0.27542  5.29023
   spin  1
    eigenvalues: 
  1.003  1.003  1.003  1.003  1.004
    eigenvectors:
  0.000  0.000  0.000  0.978  0.021
  0.000  0.992  0.007  0.000  0.000
  0.001  0.007  0.992  0.000  0.000
  0.000  0.000  0.000  0.021  0.978
  0.999  0.000  0.001  0.000  0.000
    occupations:
  1.003 -0.000  0.000  0.000  0.000
 -0.000  1.003  0.000  0.000 -0.000
  0.000  0.000  1.003 -0.000  0.000
  0.000  0.000 -0.000  1.004 -0.000
  0.000 -0.000  0.000 -0.000  1.003
   spin  2
    eigenvalues: 
  0.041  0.052  0.055  0.056  0.071
    eigenvectors:
  0.027  0.879  0.013  0.080  0.000
  0.000  0.091  0.035  0.872  0.001
  0.000  0.003  0.942  0.044  0.011
  0.973  0.026  0.000  0.001  0.000
  0.000  0.001  0.010  0.002  0.988
    occupations:
  0.052  0.001 -0.000 -0.002 -0.000
  0.001  0.055  0.000  0.000  0.001
 -0.000  0.000  0.055  0.000  0.002
 -0.002  0.000  0.000  0.041 -0.000
 -0.000  0.001  0.002 -0.000  0.071
atomic mag. moment =     4.739382
atom    8   Tr[ns(na)] (up, down, total) =   0.27573  5.01486  5.29059
   spin  1
    eigenvalues: 
  0.041  0.052  0.055  0.056  0.071
    eigenvectors:
  0.027  0.878  0.010  0.085  0.000
  0.000  0.093  0.020  0.886  0.001
  0.000  0.003  0.959  0.026  0.012
  0.973  0.026  0.000  0.001  0.000
  0.000  0.001  0.011  0.002  0.986
    occupations:
  0.052  0.001 -0.000 -0.002 -0.000
  0.001  0.056  0.000  0.000  0.001
 -0.000  0.000  0.055  0.000  0.002
 -0.002  0.000  0.000  0.041 -0.000
 -0.000  0.001  0.002 -0.000  0.071
   spin  2
    eigenvalues: 
  1.003  1.003  1.003  1.003  1.004
    eigenvectors:
  0.000  0.001  0.000  0.970  0.029
  0.000  0.978  0.021  0.001  0.000
  0.003  0.021  0.976  0.000  0.000
  0.000  0.000  0.000  0.029  0.970
  0.997  0.000  0.002  0.000  0.000
    occupations:
  1.003 -0.000  0.000  0.000  0.000
 -0.000  1.003  0.000  0.000 -0.000
  0.000  0.000  1.003  0.000  0.000
  0.000  0.000  0.000  1.004 -0.000
  0.000 -0.000  0.000 -0.000  1.003
atomic mag. moment =    -4.739128
N of occupied +U levels =   42.322337
 --- exit write_ns ---

     total cpu time spent up to now is      113.2 secs

     total energy              =  -14679.21262621 Ry
     Harris-Foulkes estimate   =  -14669.84629485 Ry
     estimated scf accuracy    <      21.28746334 Ry

     total magnetization       =     0.00 Bohr mag/cell
     absolute magnetization    =    43.48 Bohr mag/cell

     iteration #  2     ecut=    45.00 Ry     beta= 0.10
     Davidson diagonalization with overlap
     ethr =  7.19E-03,  avg # of iterations =  1.0

     total cpu time spent up to now is      157.5 secs

     total energy              =  -14692.14327457 Ry
     Harris-Foulkes estimate   =  -14679.31838310 Ry
     estimated scf accuracy    <      17.17174970 Ry

     total magnetization       =     0.00 Bohr mag/cell
     absolute magnetization    =    43.07 Bohr mag/cell

     iteration #  3     ecut=    45.00 Ry     beta= 0.10
     Davidson diagonalization with overlap
     ethr =  5.80E-03,  avg # of iterations =  2.1

     total cpu time spent up to now is      211.0 secs

     total energy              =  -14693.81391623 Ry
     Harris-Foulkes estimate   =  -14693.75073848 Ry
     estimated scf accuracy    <       4.09106310 Ry

     total magnetization       =    -0.00 Bohr mag/cell
     absolute magnetization    =    39.19 Bohr mag/cell

     iteration #  4     ecut=    45.00 Ry     beta= 0.10
     Davidson diagonalization with overlap
     ethr =  1.38E-03,  avg # of iterations =  5.8

     total cpu time spent up to now is      292.3 secs

     total energy              =  -14693.46434470 Ry
     Harris-Foulkes estimate   =  -14693.85314348 Ry
     estimated scf accuracy    <       4.36816965 Ry

     total magnetization       =    -0.01 Bohr mag/cell
     absolute magnetization    =    39.00 Bohr mag/cell

     iteration #  5     ecut=    45.00 Ry     beta= 0.10
     Davidson diagonalization with overlap
     ethr =  1.38E-03,  avg # of iterations =  4.9

     total cpu time spent up to now is      374.0 secs

     total energy              =  -14693.84597336 Ry
     Harris-Foulkes estimate   =  -14693.83012116 Ry
     estimated scf accuracy    <       0.27667266 Ry

     total magnetization       =     0.00 Bohr mag/cell
     absolute magnetization    =    38.17 Bohr mag/cell

     iteration #  6     ecut=    45.00 Ry     beta= 0.10
     Davidson diagonalization with overlap
     ethr =  9.35E-05,  avg # of iterations =  3.9

     total cpu time spent up to now is      472.1 secs

     total energy              =  -14693.97246701 Ry
     Harris-Foulkes estimate   =  -14693.93188169 Ry
     estimated scf accuracy    <       0.26328155 Ry

     total magnetization       =    -0.00 Bohr mag/cell
     absolute magnetization    =    37.11 Bohr mag/cell

     iteration #  7     ecut=    45.00 Ry     beta= 0.10
     Davidson diagonalization with overlap
     ethr =  8.89E-05,  avg # of iterations =  2.0

     total cpu time spent up to now is      524.6 secs

     total energy              =  -14693.86020966 Ry
     Harris-Foulkes estimate   =  -14694.00644615 Ry
     estimated scf accuracy    <       0.96640525 Ry

     total magnetization       =    -0.01 Bohr mag/cell
     absolute magnetization    =    36.92 Bohr mag/cell

     iteration #  8     ecut=    45.00 Ry     beta= 0.10
     Davidson diagonalization with overlap
     ethr =  8.89E-05,  avg # of iterations =  2.2

     total cpu time spent up to now is      586.3 secs

     total energy              =  -14693.92317841 Ry
     Harris-Foulkes estimate   =  -14693.92765507 Ry
     estimated scf accuracy    <       0.07119864 Ry

     total magnetization       =    -0.00 Bohr mag/cell
     absolute magnetization    =    37.00 Bohr mag/cell

     iteration #  9     ecut=    45.00 Ry     beta= 0.10
     Davidson diagonalization with overlap
     ethr =  2.41E-05,  avg # of iterations =  1.9

     total cpu time spent up to now is      636.1 secs

     total energy              =  -14693.92359280 Ry
     Harris-Foulkes estimate   =  -14693.92460313 Ry
     estimated scf accuracy    <       0.03475228 Ry

     total magnetization       =    -0.00 Bohr mag/cell
     absolute magnetization    =    37.00 Bohr mag/cell

     iteration # 10     ecut=    45.00 Ry     beta= 0.10
     Davidson diagonalization with overlap
     ethr =  1.17E-05,  avg # of iterations =  2.5

     total cpu time spent up to now is      690.5 secs

     total energy              =  -14693.92590289 Ry
     Harris-Foulkes estimate   =  -14693.92529536 Ry
     estimated scf accuracy    <       0.00942816 Ry

     total magnetization       =    -0.00 Bohr mag/cell
     absolute magnetization    =    36.94 Bohr mag/cell

     iteration # 11     ecut=    45.00 Ry     beta= 0.10
     Davidson diagonalization with overlap
     ethr =  3.19E-06,  avg # of iterations =  4.2

     total cpu time spent up to now is      762.6 secs

     total energy              =  -14693.92714496 Ry
     Harris-Foulkes estimate   =  -14693.92681501 Ry
     estimated scf accuracy    <       0.00155230 Ry

     total magnetization       =    -0.00 Bohr mag/cell
     absolute magnetization    =    36.88 Bohr mag/cell

     iteration # 12     ecut=    45.00 Ry     beta= 0.10
     Davidson diagonalization with overlap
     ethr =  5.24E-07,  avg # of iterations =  3.2

     total cpu time spent up to now is      837.9 secs

     total energy              =  -14693.92754471 Ry
     Harris-Foulkes estimate   =  -14693.92758893 Ry
     estimated scf accuracy    <       0.00040272 Ry

     total magnetization       =    -0.00 Bohr mag/cell
     absolute magnetization    =    36.82 Bohr mag/cell

     iteration # 13     ecut=    45.00 Ry     beta= 0.10
     Davidson diagonalization with overlap
     ethr =  1.36E-07,  avg # of iterations =  2.0

     total cpu time spent up to now is      891.5 secs

     total energy              =  -14693.92763187 Ry
     Harris-Foulkes estimate   =  -14693.92759690 Ry
     estimated scf accuracy    <       0.00014269 Ry

     total magnetization       =    -0.00 Bohr mag/cell
     absolute magnetization    =    36.82 Bohr mag/cell

     iteration # 14     ecut=    45.00 Ry     beta= 0.10
     Davidson diagonalization with overlap
     ethr =  4.82E-08,  avg # of iterations =  2.8

     total cpu time spent up to now is      954.6 secs

     total energy              =  -14693.92768058 Ry
     Harris-Foulkes estimate   =  -14693.92766583 Ry
     estimated scf accuracy    <       0.00002930 Ry

     total magnetization       =    -0.00 Bohr mag/cell
     absolute magnetization    =    36.80 Bohr mag/cell

     iteration # 15     ecut=    45.00 Ry     beta= 0.10
     Davidson diagonalization with overlap
     ethr =  9.90E-09,  avg # of iterations =  3.3

     total cpu time spent up to now is     1014.5 secs

     total energy              =  -14693.92769573 Ry
     Harris-Foulkes estimate   =  -14693.92768462 Ry
     estimated scf accuracy    <       0.00001849 Ry

     total magnetization       =    -0.00 Bohr mag/cell
     absolute magnetization    =    36.80 Bohr mag/cell

     iteration # 16     ecut=    45.00 Ry     beta= 0.10
     Davidson diagonalization with overlap
     ethr =  6.25E-09,  avg # of iterations =  2.0

     total cpu time spent up to now is     1066.9 secs

     total energy              =  -14693.92770761 Ry
     Harris-Foulkes estimate   =  -14693.92769839 Ry
     estimated scf accuracy    <       0.00001199 Ry

     total magnetization       =    -0.00 Bohr mag/cell
     absolute magnetization    =    36.79 Bohr mag/cell

     iteration # 17     ecut=    45.00 Ry     beta= 0.10
     Davidson diagonalization with overlap
     ethr =  4.05E-09,  avg # of iterations =  1.3

     total cpu time spent up to now is     1113.5 secs

     total energy              =  -14693.92771385 Ry
     Harris-Foulkes estimate   =  -14693.92770726 Ry
     estimated scf accuracy    <       0.00000754 Ry

     total magnetization       =    -0.00 Bohr mag/cell
     absolute magnetization    =    36.79 Bohr mag/cell

     iteration # 18     ecut=    45.00 Ry     beta= 0.10
     Davidson diagonalization with overlap
     ethr =  2.55E-09,  avg # of iterations =  1.2

     total cpu time spent up to now is     1159.4 secs

     total energy              =  -14693.92771999 Ry
     Harris-Foulkes estimate   =  -14693.92771354 Ry
     estimated scf accuracy    <       0.00000545 Ry

     total magnetization       =    -0.00 Bohr mag/cell
     absolute magnetization    =    36.79 Bohr mag/cell

     iteration # 19     ecut=    45.00 Ry     beta= 0.10
     Davidson diagonalization with overlap
     ethr =  1.84E-09,  avg # of iterations =  2.3

     total cpu time spent up to now is     1211.9 secs

     total energy              =  -14693.92772311 Ry
     Harris-Foulkes estimate   =  -14693.92771893 Ry
     estimated scf accuracy    <       0.00000335 Ry

     total magnetization       =    -0.00 Bohr mag/cell
     absolute magnetization    =    36.79 Bohr mag/cell

     iteration # 20     ecut=    45.00 Ry     beta= 0.10
     Davidson diagonalization with overlap
     ethr =  1.13E-09,  avg # of iterations =  2.2

     total cpu time spent up to now is     1264.0 secs

     total energy              =  -14693.92772526 Ry
     Harris-Foulkes estimate   =  -14693.92772229 Ry
     estimated scf accuracy    <       0.00000138 Ry

     total magnetization       =    -0.00 Bohr mag/cell
     absolute magnetization    =    36.79 Bohr mag/cell

     iteration # 21     ecut=    45.00 Ry     beta= 0.10
     Davidson diagonalization with overlap
     ethr =  4.65E-10,  avg # of iterations =  3.2
 
     Magnetic moment per site:
     atom:    1    charge:   13.5373    magn:    4.2427    constr:    0.0000
     atom:    2    charge:   13.5379    magn:   -4.2426    constr:    0.0000
     atom:    3    charge:   13.5375    magn:   -4.2426    constr:    0.0000
     atom:    4    charge:   13.5380    magn:    4.2424    constr:    0.0000
     atom:    5    charge:   13.5378    magn:    4.2424    constr:    0.0000
     atom:    6    charge:   13.5381    magn:   -4.2422    constr:    0.0000
     atom:    7    charge:   13.5380    magn:    4.2424    constr:    0.0000
     atom:    8    charge:   13.5375    magn:   -4.2426    constr:    0.0000
     atom:    9    charge:    9.0930    magn:    0.0068    constr:    0.0000
     atom:   10    charge:    9.0931    magn:   -0.0069    constr:    0.0000
     atom:   11    charge:    9.0930    magn:    0.0070    constr:    0.0000
     atom:   12    charge:    9.0928    magn:   -0.0069    constr:    0.0000
     atom:   13    charge:    9.0930    magn:   -0.0070    constr:    0.0000
     atom:   14    charge:    9.0929    magn:    0.0069    constr:    0.0000
     atom:   15    charge:    9.0929    magn:    0.0071    constr:    0.0000
     atom:   16    charge:    9.0928    magn:   -0.0070    constr:    0.0000
     atom:   17    charge:    9.0929    magn:    0.0069    constr:    0.0000
     atom:   18    charge:    9.0930    magn:   -0.0070    constr:    0.0000
     atom:   19    charge:    9.0928    magn:   -0.0069    constr:    0.0000
     atom:   20    charge:    9.0930    magn:    0.0070    constr:    0.0000
     atom:   21    charge:    9.0930    magn:    0.0068    constr:    0.0000
     atom:   22    charge:    9.0931    magn:   -0.0069    constr:    0.0000
     atom:   23    charge:    9.0929    magn:    0.0071    constr:    0.0000
     atom:   24    charge:    9.0928    magn:   -0.0070    constr:    0.0000

     total cpu time spent up to now is     1324.3 secs

     End of self-consistent calculation
 --- enter write_ns ---
 LDA+U parameters:
U(  1) =   3.1200   J(  1) =   0.7000   B(  1) =   0.0803
U(  2) =   3.1200   J(  2) =   0.7000   B(  2) =   0.0803
atom    1   Tr[ns(na)] (up, down, total) =   4.96971  0.72971  5.69942
   spin  1
    eigenvalues: 
  0.986  0.992  0.993  0.997  1.002
    eigenvectors:
  0.000  0.022  0.008  0.954  0.016
  0.001  0.886  0.083  0.025  0.005
  0.000  0.089  0.909  0.002  0.000
  0.000  0.002  0.000  0.019  0.979
  0.999  0.001  0.000  0.000  0.000
    occupations:
  0.997 -0.001 -0.000  0.001  0.000
 -0.001  0.993  0.000 -0.001 -0.000
 -0.000  0.000  0.993  0.000  0.000
  0.001 -0.001  0.000  1.002  0.000
  0.000 -0.000  0.000  0.000  0.986
   spin  2
    eigenvalues: 
  0.069  0.119  0.141  0.147  0.254
    eigenvectors:
  0.000  0.996  0.000  0.002  0.001
  0.001  0.000  0.989  0.009  0.001
  0.000  0.003  0.007  0.932  0.058
  0.999  0.000  0.001  0.000  0.000
  0.000  0.001  0.002  0.057  0.940
    occupations:
  0.119 -0.000 -0.002 -0.001 -0.004
 -0.000  0.141  0.000 -0.002  0.003
 -0.002  0.000  0.153  0.000  0.025
 -0.001 -0.002  0.000  0.069 -0.000
 -0.004  0.003  0.025 -0.000  0.247
atomic mag. moment =     4.240003
atom    2   Tr[ns(na)] (up, down, total) =   0.73028  4.96980  5.70008
   spin  1
    eigenvalues: 
  0.069  0.119  0.141  0.147  0.254
    eigenvectors:
  0.000  0.997  0.000  0.002  0.001
  0.001  0.000  0.989  0.009  0.001
  0.000  0.002  0.008  0.932  0.058
  0.999  0.000  0.001  0.000  0.000
  0.000  0.001  0.003  0.057  0.940
    occupations:
  0.120 -0.000 -0.002 -0.001 -0.004
 -0.000  0.141  0.000 -0.002  0.003
 -0.002  0.000  0.153  0.000  0.025
 -0.001 -0.002  0.000  0.069 -0.000
 -0.004  0.003  0.025 -0.000  0.248
   spin  2
    eigenvalues: 
  0.986  0.992  0.993  0.997  1.002
    eigenvectors:
  0.000  0.021  0.008  0.955  0.017
  0.001  0.873  0.097  0.024  0.005
  0.000  0.103  0.895  0.001  0.000
  0.000  0.002  0.000  0.019  0.979
  0.999  0.001  0.000  0.000  0.000
    occupations:
  0.997 -0.001 -0.000  0.001  0.000
 -0.001  0.993  0.000 -0.001 -0.000
 -0.000  0.000  0.993  0.000  0.000
  0.001 -0.001  0.000  1.002  0.000
  0.000 -0.000  0.000  0.000  0.986
atomic mag. moment =    -4.239521
atom    3   Tr[ns(na)] (up, down, total) =   0.72987  4.96964  5.69951
   spin  1
    eigenvalues: 
  0.069  0.119  0.141  0.147  0.254
    eigenvectors:
  0.000  0.997  0.000  0.001  0.001
  0.001  0.000  0.981  0.018  0.001
  0.000  0.002  0.015  0.924  0.059
  0.999  0.000  0.001  0.000  0.000
  0.000  0.001  0.004  0.057  0.939
    occupations:
  0.119 -0.000 -0.002 -0.001 -0.005
 -0.000  0.141  0.000 -0.002  0.003
 -0.002  0.000  0.153  0.000  0.025
 -0.001 -0.002  0.000  0.069 -0.000
 -0.005  0.003  0.025 -0.000  0.247
   spin  2
    eigenvalues: 
  0.986  0.992  0.993  0.997  1.002
    eigenvectors:
  0.000  0.023  0.006  0.955  0.016
  0.000  0.910  0.061  0.025  0.005
  0.000  0.065  0.933  0.002  0.000
  0.000  0.002  0.000  0.018  0.979
  0.999  0.000  0.000  0.000  0.000
    occupations:
  0.997 -0.001 -0.000  0.001  0.000
 -0.001  0.993  0.000 -0.001 -0.000
 -0.000  0.000  0.993  0.000  0.000
  0.001 -0.001  0.000  1.002  0.000
  0.000 -0.000  0.000  0.000  0.986
atomic mag. moment =    -4.239774
atom    4   Tr[ns(na)] (up, down, total) =   4.96970  0.73036  5.70006
   spin  1
    eigenvalues: 
  0.986  0.992  0.993  0.997  1.002
    eigenvectors:
  0.000  0.022  0.006  0.956  0.016
  0.000  0.901  0.070  0.024  0.005
  0.000  0.075  0.924  0.001  0.000
  0.000  0.002  0.000  0.019  0.979
  0.999  0.000  0.000  0.000  0.000
    occupations:
  0.997 -0.001 -0.000  0.001  0.000
 -0.001  0.993  0.000 -0.001 -0.000
 -0.000  0.000  0.993  0.000  0.000
  0.001 -0.001  0.000  1.002  0.000
  0.000 -0.000  0.000  0.000  0.986
   spin  2
    eigenvalues: 
  0.069  0.119  0.141  0.147  0.254
    eigenvectors:
  0.000  0.997  0.000  0.001  0.001
  0.001  0.000  0.980  0.018  0.001
  0.000  0.002  0.015  0.924  0.059
  0.999  0.000  0.001  0.000  0.000
  0.000  0.001  0.004  0.057  0.939
    occupations:
  0.119 -0.000 -0.002 -0.001 -0.005
 -0.000  0.141  0.000 -0.002  0.003
 -0.002  0.000  0.153  0.000  0.025
 -0.001 -0.002  0.000  0.069 -0.000
 -0.005  0.003  0.025 -0.000  0.247
atomic mag. moment =     4.239338
atom    5   Tr[ns(na)] (up, down, total) =   4.96967  0.73033  5.70000
   spin  1
    eigenvalues: 
  0.986  0.992  0.993  0.997  1.002
    eigenvectors:
  0.000  0.022  0.009  0.952  0.016
  0.001  0.878  0.090  0.027  0.005
  0.000  0.096  0.901  0.002  0.000
  0.000  0.002  0.000  0.019  0.979
  0.999  0.001  0.000  0.000  0.000
    occupations:
  0.997 -0.001 -0.000  0.001  0.000
 -0.001  0.993  0.000 -0.001 -0.000
 -0.000  0.000  0.993  0.000  0.000
  0.001 -0.001  0.000  1.002  0.000
  0.000 -0.000  0.000  0.000  0.986
   spin  2
    eigenvalues: 
  0.069  0.119  0.141  0.147  0.254
    eigenvectors:
  0.000  0.997  0.000  0.002  0.001
  0.001  0.000  0.984  0.014  0.001
  0.000  0.002  0.011  0.928  0.058
  0.998  0.000  0.001  0.000  0.000
  0.000  0.001  0.003  0.056  0.940
    occupations:
  0.119 -0.000 -0.002 -0.001 -0.005
 -0.000  0.141  0.000 -0.002  0.003
 -0.002  0.000  0.153  0.000  0.025
 -0.001 -0.002  0.000  0.069 -0.000
 -0.005  0.003  0.025 -0.000  0.248
atomic mag. moment =     4.239340
atom    6   Tr[ns(na)] (up, down, total) =   0.73075  4.96970  5.70045
   spin  1
    eigenvalues: 
  0.069  0.119  0.141  0.147  0.254
    eigenvectors:
  0.000  0.997  0.000  0.001  0.001
  0.001  0.000  0.984  0.014  0.001
  0.000  0.002  0.011  0.929  0.058
  0.999  0.000  0.001  0.000  0.000
  0.000  0.001  0.003  0.056  0.940
    occupations:
  0.119 -0.000 -0.002 -0.001 -0.004
 -0.000  0.141  0.000 -0.002  0.003
 -0.002  0.000  0.153  0.000  0.025
 -0.001 -0.002  0.000  0.069 -0.000
 -0.004  0.003  0.025 -0.000  0.248
   spin  2
    eigenvalues: 
  0.986  0.992  0.993  0.997  1.002
    eigenvectors:
  0.000  0.022  0.009  0.953  0.016
  0.001  0.873  0.096  0.026  0.004
  0.000  0.103  0.895  0.002  0.000
  0.000  0.002  0.000  0.019  0.979
  0.999  0.001  0.000  0.000  0.000
    occupations:
  0.997 -0.001 -0.000  0.001  0.000
 -0.001  0.993  0.000 -0.001 -0.000
 -0.000  0.000  0.993  0.000  0.000
  0.001 -0.001  0.000  1.002  0.000
  0.000 -0.000  0.000  0.000  0.986
atomic mag. moment =    -4.238950
atom    7   Tr[ns(na)] (up, down, total) =   4.96970  0.73036  5.70006
   spin  1
    eigenvalues: 
  0.986  0.992  0.993  0.997  1.002
    eigenvectors:
  0.000  0.022  0.006  0.956  0.016
  0.000  0.901  0.070  0.024  0.005
  0.000  0.075  0.924  0.001  0.000
  0.000  0.002  0.000  0.019  0.979
  0.999  0.000  0.000  0.000  0.000
    occupations:
  0.997 -0.001 -0.000  0.001  0.000
 -0.001  0.993  0.000 -0.001 -0.000
 -0.000  0.000  0.993  0.000  0.000
  0.001 -0.001  0.000  1.002  0.000
  0.000 -0.000  0.000  0.000  0.986
   spin  2
    eigenvalues: 
  0.069  0.119  0.141  0.147  0.254
    eigenvectors:
  0.000  0.997  0.000  0.001  0.001
  0.001  0.000  0.980  0.018  0.001
  0.000  0.002  0.015  0.924  0.059
  0.999  0.000  0.001  0.000  0.000
  0.000  0.001  0.004  0.057  0.939
    occupations:
  0.119 -0.000 -0.002 -0.001 -0.005
 -0.000  0.141  0.000 -0.002  0.003
 -0.002  0.000  0.153  0.000  0.025
 -0.001 -0.002  0.000  0.069 -0.000
 -0.005  0.003  0.025 -0.000  0.247
atomic mag. moment =     4.239338
atom    8   Tr[ns(na)] (up, down, total) =   0.72987  4.96964  5.69951
   spin  1
    eigenvalues: 
  0.069  0.119  0.141  0.147  0.254
    eigenvectors:
  0.000  0.997  0.000  0.001  0.001
  0.001  0.000  0.981  0.018  0.001
  0.000  0.002  0.015  0.924  0.059
  0.999  0.000  0.001  0.000  0.000
  0.000  0.001  0.004  0.057  0.939
    occupations:
  0.119 -0.000 -0.002 -0.001 -0.005
 -0.000  0.141  0.000 -0.002  0.003
 -0.002  0.000  0.153  0.000  0.025
 -0.001 -0.002  0.000  0.069 -0.000
 -0.005  0.003  0.025 -0.000  0.247
   spin  2
    eigenvalues: 
  0.986  0.992  0.993  0.997  1.002
    eigenvectors:
  0.000  0.023  0.006  0.955  0.016
  0.000  0.910  0.061  0.025  0.005
  0.000  0.065  0.933  0.002  0.000
  0.000  0.002  0.000  0.018  0.979
  0.999  0.000  0.000  0.000  0.000
    occupations:
  0.997 -0.001 -0.000  0.001  0.000
 -0.001  0.993  0.000 -0.001 -0.000
 -0.000  0.000  0.993  0.000  0.000
  0.001 -0.001  0.000  1.002  0.000
  0.000 -0.000  0.000  0.000  0.986
atomic mag. moment =    -4.239774
N of occupied +U levels =   45.599092
 --- exit write_ns ---

 ------ SPIN UP ------------


          k = 0.0000 0.0000 0.0000 ( 13629 PWs)   bands (ev):

   -66.4405 -66.4404 -66.4376 -66.4368 -61.8500 -61.8498 -61.8481 -61.8474
   -35.2306 -35.2305 -35.2277 -35.2269 -35.1647 -35.1635 -35.1604 -35.1599
   -35.1515 -35.1490 -35.1464 -35.1424 -30.6852 -30.6850 -30.6833 -30.6828
   -30.6765 -30.6761 -30.6752 -30.6741 -30.6732 -30.6680 -30.6659 -30.6588
     5.9690   7.6216   7.6217   8.1462   8.1465   8.3725   8.5399   8.5500
     8.7094   8.7106   9.1494   9.1500   9.4251   9.4257   9.4449   9.4638
     9.4725   9.4988   9.5693   9.6154   9.6230   9.6493   9.6582   9.6591
     9.6664   9.6668   9.7072   9.7081   9.9437   9.9437   9.9541   9.9554
     9.9909   9.9911  10.0388  10.0960  10.0960  10.1562  10.2491  10.2675
    10.2762  10.2766  10.3265  10.3828  10.3829  10.3857  10.4996  10.5003
    10.5160  10.5161  10.6067  10.6074  10.6930  10.8110  10.8111  10.8213
    10.9183  10.9762  11.0574  11.0579  11.1009  11.1409  11.1410  11.1539
    11.2239  11.2535  11.2540  11.3389  11.3414  11.5300  11.7166  11.7902
    11.7914  11.8304  11.8326  11.8409  11.8421  11.8761  12.0865  12.0868
    12.1325  12.2064  12.2079  12.2279  12.2585  12.2594  12.2754  12.2867
    12.3269  12.3645  12.4466  12.4470  12.4799  12.5205  12.5288  12.5405
    12.5411  12.7027  12.7053  12.7331  12.7332  12.8375  12.9282  12.9286
    13.0614  13.0734  13.2781  13.2798  13.3265  14.1455  15.0347  15.0352
    15.0932  15.0972  15.2321  16.0550  16.1164  16.4615  16.4624  16.7109
    16.7127  16.8326  17.1130  17.1137  17.2910  17.2949  17.4375  17.4610
    17.5170  17.5181  17.6614  17.6920  17.6922  17.8543  18.1672  18.2256
    18.7845  18.7999  19.1818  19.1820  19.3219  19.3222  19.5095  19.6613
    19.6837  19.6842

          k = 0.0000 0.0000-0.5441 ( 13704 PWs)   bands (ev):

   -66.4405 -66.4404 -66.4376 -66.4368 -61.8501 -61.8498 -61.8481 -61.8474
   -35.2306 -35.2305 -35.2277 -35.2269 -35.1647 -35.1635 -35.1604 -35.1599
   -35.1515 -35.1490 -35.1464 -35.1424 -30.6853 -30.6851 -30.6833 -30.6829
   -30.6765 -30.6761 -30.6752 -30.6741 -30.6732 -30.6680 -30.6659 -30.6588
     6.5582   7.6215   8.1406   8.1472   8.4507   8.4781   8.7425   8.8292
     8.8595   8.8646   8.8937   8.9280   9.0105   9.1075   9.1461   9.1842
     9.2127   9.2307   9.3500   9.4305   9.6422   9.6599   9.6614   9.6676
     9.6679   9.6930   9.7078   9.7164   9.7358   9.7675   9.7680   9.8147
     9.8372   9.8400   9.9458   9.9640   9.9879  10.0548  10.0929  10.2628
    10.2707  10.3570  10.3701  10.3824  10.4908  10.5142  10.5381  10.5753
    10.6023  10.6047  10.6081  10.6139  10.8102  10.8112  10.8962  10.9008
    10.9438  11.0342  11.0611  11.1406  11.2490  11.2574  11.3016  11.3067
    11.4206  11.4673  11.5435  11.5919  11.6294  11.7034  11.7895  11.8133
    11.8312  11.8415  11.8423  11.8756  11.9093  11.9587  12.0166  12.0499
    12.0878  12.0903  12.1525  12.2075  12.2128  12.2596  12.2749  12.2923
    12.3042  12.3291  12.3648  12.3699  12.4300  12.4495  12.5357  12.5916
    12.7254  12.7306  12.7473  12.8039  12.8213  12.8599  12.9312  13.0017
    13.1334  13.1852  13.2804  13.3880  13.7655  13.8060  13.9694  14.1017
    14.4488  15.0346  15.1525  15.2473  15.5766  15.6265  16.4698  16.7237
    16.7716  16.9288  17.1030  17.2210  17.2391  17.3153  17.3191  17.4559
    17.5079  17.5151  17.5612  17.6686  17.6823  17.9267  17.9329  17.9527
    18.2167  18.2907  18.6541  18.7813  19.1832  19.2281  19.3191  19.4045
    19.5007  19.6878

          k = 0.0000 0.0000 1.0883 ( 13706 PWs)   bands (ev):

   -66.4405 -66.4404 -66.4376 -66.4368 -61.8501 -61.8498 -61.8481 -61.8474
   -35.2306 -35.2305 -35.2277 -35.2269 -35.1647 -35.1635 -35.1605 -35.1599
   -35.1515 -35.1490 -35.1464 -35.1424 -30.6853 -30.6851 -30.6834 -30.6829
   -30.6765 -30.6761 -30.6752 -30.6741 -30.6732 -30.6679 -30.6658 -30.6588
     7.7901   8.1402   8.1406   8.3766   8.3790   8.5486   8.5872   8.7101
     8.7108   8.7889   8.8672   8.8676   8.8828   9.0081   9.0086   9.1860
     9.1862   9.2308   9.2312   9.4655   9.4746   9.5339   9.6155   9.6242
     9.6594   9.6603   9.7137   9.7140   9.7696   9.7697   9.8053   9.8357
     9.8359   9.9542   9.9553   9.9634   9.9635  10.0565  10.0569  10.1452
    10.2466  10.2675  10.2710  10.2718  10.2725  10.3242  10.3568  10.3569
    10.3820  10.3846  10.5330  10.6083  10.6088  10.6915  10.8206  10.8917
    10.8925  10.9298  10.9300  11.0308  11.0310  11.2267  11.4116  11.4213
    11.4218  11.4871  11.4910  11.5300  11.5848  11.5859  11.7946  11.8110
    11.8117  11.8281  11.8302  11.8761  12.0480  12.0496  12.0887  12.1593
    12.1601  12.2755  12.3276  12.3644  12.3683  12.3684  12.4325  12.4329
    12.4845  12.5219  12.5670  12.7055  12.7076  12.7278  12.7279  12.7463
    12.7466  12.7704  12.8365  13.0297  13.1176  13.1354  13.1361  13.2657
    13.2782  13.2844  13.2846  13.2848  13.3291  13.3730  13.3855  13.3859
    14.1475  15.0903  15.0970  15.1550  15.1554  15.2311  16.1071  16.7593
    16.7603  16.9300  16.9305  16.9863  17.2929  17.3077  17.3096  17.3457
    17.4529  17.5260  17.5264  17.5265  17.7486  17.8798  17.9275  17.9281
    18.1667  18.2284  18.2890  18.2899  18.7936  19.2251  19.2255  19.4076
    19.4078  19.4994

          k =-0.1768-0.1768-0.1360 ( 13673 PWs)   bands (ev):

   -66.4405 -66.4404 -66.4376 -66.4368 -61.8500 -61.8499 -61.8481 -61.8474
   -35.2306 -35.2305 -35.2277 -35.2269 -35.1645 -35.1637 -35.1604 -35.1599
   -35.1513 -35.1497 -35.1455 -35.1428 -30.6852 -30.6850 -30.6833 -30.6828
   -30.6764 -30.6761 -30.6748 -30.6740 -30.6732 -30.6702 -30.6637 -30.6594
     6.1310   7.3044   7.7564   7.7720   8.3991   8.4944   8.5943   8.6985
     8.7072   8.8204   9.1848   9.2030   9.2997   9.3305   9.3537   9.3941
     9.4443   9.4845   9.5064   9.5276   9.5389   9.5661   9.5987   9.6349
     9.6473   9.6713   9.7148   9.7431   9.9096   9.9508   9.9870  10.0037
    10.0441  10.0607  10.0636  10.0876  10.1393  10.1729  10.1931  10.2595
    10.3216  10.3318  10.3745  10.4133  10.4341  10.4855  10.5032  10.5144
    10.5891  10.6079  10.6184  10.6842  10.6979  10.8070  10.8286  10.9356
    10.9455  10.9740  11.0152  11.0400  11.0756  11.0908  11.1081  11.1507
    11.1852  11.2822  11.3021  11.3208  11.4135  11.4537  11.6497  11.6510
    11.6649  11.6933  11.7954  11.8145  11.8164  11.8764  11.9190  11.9701
    12.0106  12.1052  12.1061  12.1097  12.1579  12.1983  12.2142  12.2311
    12.3076  12.3090  12.3355  12.3741  12.4785  12.5523  12.5611  12.5798
    12.5994  12.6359  12.6476  12.7647  12.7775  12.8476  12.9223  12.9674
    12.9714  13.0849  13.3135  14.0011  14.1129  14.7091  14.9403  15.0167
    15.2039  15.4377  15.4442  16.0042  16.0344  16.2168  16.2259  16.5850
    16.6465  16.9059  17.0539  17.0987  17.2606  17.3528  17.3954  17.4536
    17.4562  17.4856  17.6016  17.7100  17.7886  18.0568  18.0833  18.2180
    18.3544  18.4868  18.8813  18.9476  19.0161  19.0882  19.1340  19.1999
    19.2587  20.0288

          k =-0.1768-0.1768-0.6802 ( 13666 PWs)   bands (ev):

   -66.4405 -66.4404 -66.4376 -66.4368 -61.8500 -61.8499 -61.8481 -61.8474
   -35.2306 -35.2305 -35.2277 -35.2269 -35.1645 -35.1637 -35.1604 -35.1599
   -35.1513 -35.1497 -35.1455 -35.1428 -30.6852 -30.6851 -30.6833 -30.6829
   -30.6764 -30.6761 -30.6748 -30.6740 -30.6732 -30.6701 -30.6637 -30.6594
     6.9786   7.0367   8.3379   8.3435   8.4286   8.4341   8.6428   8.7674
     8.8260   8.8842   8.9839   8.9944   9.0427   9.0608   9.1482   9.1776
     9.2629   9.4118   9.4337   9.4535   9.4995   9.5246   9.5760   9.6017
     9.6055   9.6433   9.6796   9.7149   9.7279   9.7340   9.8069   9.8296
     9.8889   9.8978   9.9561   9.9587  10.0052  10.0098  10.0103  10.3471
    10.3743  10.4165  10.4249  10.4533  10.4635  10.4916  10.5283  10.6076
    10.6092  10.6610  10.6802  10.7066  10.7521  10.7955  10.8727  10.8845
    10.9329  11.0626  11.0785  11.0903  11.1519  11.1755  11.2083  11.2424
    11.3895  11.4230  11.4571  11.4645  11.5654  11.5838  11.6266  11.7056
    11.7059  11.7813  11.7972  11.8151  11.8324  11.8502  11.9805  12.0140
    12.0367  12.0513  12.1382  12.1437  12.2471  12.2510  12.2891  12.2995
    12.3238  12.3397  12.3736  12.4437  12.4649  12.5159  12.5362  12.5595
    12.5885  12.6303  12.6475  12.7807  12.8050  12.8697  12.9951  13.0142
    13.1280  13.1977  13.6205  13.6594  14.0970  14.1423  14.5368  14.6097
    14.7663  14.9864  15.3677  15.4648  15.8394  16.0384  16.2266  16.2665
    16.3857  16.6678  16.9452  17.0398  17.1884  17.3182  17.3410  17.3501
    17.4498  17.4865  17.4964  17.6806  17.7315  17.7983  17.9580  18.0075
    18.0780  18.1013  18.3377  18.5039  18.6502  18.7958  19.1667  19.2981
    20.2395  20.5560

          k =-0.1768-0.1768 0.9522 ( 13713 PWs)   bands (ev):

   -66.4405 -66.4404 -66.4376 -66.4368 -61.8500 -61.8498 -61.8481 -61.8474
   -35.2306 -35.2305 -35.2277 -35.2269 -35.1645 -35.1637 -35.1604 -35.1600
   -35.1513 -35.1498 -35.1455 -35.1428 -30.6853 -30.6851 -30.6834 -30.6829
   -30.6764 -30.6761 -30.6748 -30.6740 -30.6732 -30.6701 -30.6636 -30.6594
     7.6720   7.7961   8.3966   8.3991   8.4607   8.5975   8.6579   8.6690
     8.7200   8.7643   8.7890   8.8666   8.8897   8.9198   9.0019   9.1091
     9.1664   9.1666   9.2827   9.3457   9.3962   9.4893   9.5429   9.5472
     9.5523   9.6308   9.7121   9.7169   9.7250   9.7265   9.8179   9.8279
     9.8962   9.9066   9.9439   9.9494   9.9932  10.0652  10.0918  10.1044
    10.1980  10.2501  10.2893  10.3375  10.4355  10.4498  10.5046  10.5155
    10.6096  10.6373  10.6568  10.6684  10.8179  10.8581  10.9027  10.9049
    10.9301  10.9469  11.0041  11.0552  11.0568  11.2229  11.3171  11.4423
    11.5301  11.5353  11.5703  11.6072  11.6674  11.7349  11.8037  11.8507
    11.8862  11.9232  11.9302  11.9459  12.0157  12.0733  12.0868  12.1351
    12.1399  12.1794  12.2456  12.2779  12.3199  12.3445  12.3758  12.4045
    12.4377  12.4396  12.5207  12.5349  12.5630  12.6803  12.6960  12.7558
    12.7806  12.8157  12.8436  12.8811  12.9471  13.0104  13.0252  13.0433
    13.1358  13.1480  13.1782  13.2027  13.3638  13.5771  13.6214  13.7504
    13.8541  14.1506  14.7450  14.8168  15.7059  15.7629  16.0222  16.0938
    16.3172  16.9123  16.9709  17.1302  17.2185  17.2892  17.2979  17.4611
    17.4664  17.4907  17.5209  17.5244  17.6195  17.7177  17.8693  17.9459
    17.9793  18.1309  18.3241  18.8321  19.0794  19.1626  19.2469  19.2520
    19.6538  19.7700

          k =-0.1768-0.1768 0.4081 ( 13683 PWs)   bands (ev):

   -66.4405 -66.4404 -66.4376 -66.4368 -61.8500 -61.8499 -61.8481 -61.8474
   -35.2306 -35.2305 -35.2277 -35.2269 -35.1645 -35.1637 -35.1604 -35.1600
   -35.1513 -35.1497 -35.1455 -35.1428 -30.6852 -30.6851 -30.6833 -30.6829
   -30.6764 -30.6761 -30.6748 -30.6740 -30.6732 -30.6702 -30.6637 -30.6594
     6.4253   8.0063   8.0094   8.1455   8.3480   8.5235   8.5511   8.6855
     8.7628   8.7774   8.8629   9.0203   9.0612   9.0973   9.0989   9.1703
     9.2863   9.2897   9.3740   9.3761   9.4644   9.5679   9.5895   9.6106
     9.6220   9.6680   9.7191   9.7425   9.8057   9.8415   9.8643   9.8790
     9.8867   9.9537   9.9641  10.0527  10.0613  10.1267  10.1727  10.1735
    10.1805  10.2276  10.3351  10.3923  10.4217  10.5003  10.5069  10.5751
    10.6075  10.7695  10.7879  10.8030  10.8837  10.8916  10.9221  10.9445
    10.9627  11.1473  11.2196  11.2536  11.2807  11.3083  11.3232  11.4272
    11.4311  11.4485  11.4962  11.5734  11.6542  11.6790  11.7380  11.8642
    11.8752  11.8916  11.9158  11.9267  12.0178  12.0505  12.0588  12.0813
    12.0931  12.1449  12.1510  12.1907  12.2178  12.2238  12.2498  12.2541
    12.2606  12.3399  12.3653  12.3816  12.3922  12.4313  12.5199  12.5612
    12.6339  12.6663  12.7212  12.7522  12.7535  12.7868  12.8547  12.9114
    13.0909  13.1721  13.2085  13.2546  13.3242  13.3984  13.8307  13.8582
    14.7970  14.8822  15.2601  15.4530  15.4545  15.6889  16.3504  16.6443
    16.7673  16.9293  16.9600  17.1484  17.2702  17.2809  17.3583  17.4884
    17.5209  17.5427  17.5630  17.5806  17.8573  17.9253  17.9317  18.1665
    18.2626  18.3718  18.4755  18.8015  18.9572  19.1313  19.1760  19.4779
    19.9646  20.1172

          k = 0.3536 0.3536 0.2721 ( 13708 PWs)   bands (ev):

   -66.4404 -66.4404 -66.4376 -66.4368 -61.8499 -61.8499 -61.8481 -61.8473
   -35.2305 -35.2305 -35.2277 -35.2269 -35.1641 -35.1641 -35.1604 -35.1600
   -35.1509 -35.1506 -35.1443 -35.1436 -30.6851 -30.6851 -30.6833 -30.6828
   -30.6762 -30.6762 -30.6744 -30.6736 -30.6727 -30.6724 -30.6614 -30.6609
     6.5973   6.5974   8.1004   8.1004   8.1256   8.1257   8.7918   8.7919
     8.9283   8.9285   8.9727   8.9729   9.3162   9.3163   9.3750   9.3751
     9.4229   9.4229   9.5317   9.5317   9.5376   9.5377   9.6040   9.6043
     9.6605   9.6606   9.7489   9.7490   9.8542   9.8542   9.8884   9.8884
    10.0729  10.0730  10.1302  10.1302  10.1729  10.1729  10.3328  10.3330
    10.3446  10.3446  10.3903  10.3904  10.4982  10.4983  10.5275  10.5275
    10.6438  10.6440  10.6587  10.6587  10.8195  10.8195  10.8546  10.8548
    10.9682  10.9682  11.0533  11.0534  11.0916  11.0918  11.2144  11.2145
    11.3086  11.3087  11.3127  11.3129  11.4385  11.4385  11.5345  11.5347
    11.5589  11.5589  11.7005  11.7006  11.7561  11.7563  11.8396  11.8398
    11.9170  11.9172  12.0131  12.0131  12.1268  12.1268  12.1824  12.1826
    12.2599  12.2601  12.3947  12.3948  12.4343  12.4344  12.6028  12.6029
    12.6297  12.6298  12.6630  12.6632  12.8399  12.8400  12.9603  12.9603
    13.0242  13.0243  14.0874  14.0875  14.9655  14.9656  15.1149  15.1149
    15.5475  15.5476  15.8093  15.8094  15.8538  15.8540  16.1803  16.1805
    16.6687  16.6689  17.0924  17.0925  17.3060  17.3061  17.4561  17.4562
    17.6435  17.6439  17.7049  17.7051  17.7651  17.7652  17.8358  17.8359
    18.2859  18.2860  18.3724  18.3727  18.5165  18.5165  19.0878  19.0878
    20.1359  20.1359

          k = 0.3536 0.3536-0.2721 ( 13700 PWs)   bands (ev):

   -66.4404 -66.4404 -66.4376 -66.4368 -61.8500 -61.8499 -61.8481 -61.8474
   -35.2305 -35.2305 -35.2277 -35.2269 -35.1641 -35.1641 -35.1604 -35.1600
   -35.1509 -35.1506 -35.1443 -35.1436 -30.6852 -30.6851 -30.6833 -30.6829
   -30.6762 -30.6762 -30.6744 -30.6736 -30.6727 -30.6723 -30.6614 -30.6609
     6.5980   7.6164   8.1119   8.1122   8.4579   8.6246   8.6330   8.7235
     8.7697   8.8000   8.8410   8.9553   8.9642   9.0964   9.1903   9.2733
     9.2934   9.2999   9.3939   9.4666   9.4737   9.5224   9.5536   9.5564
     9.5604   9.5998   9.6593   9.6729   9.7545   9.7670   9.7916   9.9353
     9.9472   9.9720   9.9765   9.9851  10.1452  10.1689  10.1700  10.3044
    10.3296  10.3324  10.4118  10.4428  10.4520  10.4739  10.5862  10.5931
    10.6164  10.6423  10.7615  10.8357  10.8469  10.8505  10.9528  10.9845
    10.9929  11.0184  11.1325  11.1528  11.1762  11.2012  11.2780  11.3311
    11.4267  11.4683  11.5015  11.5350  11.5432  11.6252  11.6365  11.6462
    11.6967  11.7120  11.7152  11.8900  11.8949  11.9722  11.9840  12.0201
    12.0539  12.0827  12.1853  12.1883  12.2051  12.2063  12.2620  12.2649
    12.2890  12.3237  12.3908  12.3910  12.4733  12.4960  12.5242  12.5430
    12.5947  12.6312  12.6680  12.8203  12.8290  12.8621  12.8736  13.0145
    13.0476  13.0641  13.2039  13.4132  13.5841  13.9430  14.3786  14.9488
    15.0033  15.0716  15.3561  15.4436  15.5700  15.7628  16.1483  16.3387
    16.3640  16.5225  17.0732  17.1250  17.2719  17.2991  17.3419  17.4252
    17.4951  17.5197  17.5221  17.7205  17.7280  17.8288  17.9897  18.0627
    18.2306  18.2444  18.2509  18.4286  18.6553  18.9328  19.0928  19.8754
    19.9043  20.0275

          k = 0.3536 0.3536 1.3603 ( 13692 PWs)   bands (ev):

   -66.4404 -66.4404 -66.4376 -66.4368 -61.8499 -61.8499 -61.8481 -61.8474
   -35.2305 -35.2305 -35.2277 -35.2269 -35.1641 -35.1641 -35.1604 -35.1600
   -35.1509 -35.1506 -35.1443 -35.1436 -30.6852 -30.6852 -30.6833 -30.6829
   -30.6762 -30.6762 -30.6744 -30.6736 -30.6727 -30.6723 -30.6614 -30.6609
     7.6152   7.6154   8.4367   8.4369   8.5966   8.5968   8.6407   8.6408
     8.7206   8.7206   8.7478   8.7481   8.9260   8.9262   9.0566   9.0567
     9.1665   9.1665   9.2689   9.2690   9.3336   9.3336   9.5224   9.5224
     9.5232   9.5233   9.7102   9.7103   9.7814   9.7816   9.8433   9.8434
     9.8494   9.8495   9.9765   9.9765  10.0097  10.0098  10.0319  10.0319
    10.2752  10.2755  10.3845  10.3845  10.4290  10.4292  10.5519  10.5521
    10.6282  10.6284  10.8697  10.8698  10.9111  10.9111  11.0270  11.0270
    11.0598  11.0599  11.1490  11.1491  11.4357  11.4358  11.4712  11.4713
    11.7021  11.7023  11.7298  11.7298  11.8338  11.8340  11.8706  11.8707
    11.9526  11.9529  11.9847  11.9848  12.0149  12.0152  12.0426  12.0428
    12.1208  12.1209  12.1263  12.1265  12.2675  12.2675  12.2852  12.2854
    12.3229  12.3229  12.3399  12.3400  12.4332  12.4335  12.6258  12.6259
    12.7365  12.7365  12.7667  12.7668  12.7960  12.7960  12.9469  12.9469
    13.1383  13.1384  13.1899  13.1901  13.4308  13.4309  13.8192  13.8193
    13.9433  13.9435  14.9939  14.9941  15.0093  15.0095  15.9601  15.9602
    16.6095  16.6097  17.0468  17.0471  17.2875  17.2878  17.3627  17.3630
    17.5003  17.5004  17.5204  17.5206  17.6638  17.6640  17.8598  17.8601
    18.0031  18.0033  18.6425  18.6428  19.1620  19.1620  19.9143  19.9144
    19.9708  19.9710

          k = 0.1768-0.1768 0.0000 ( 13644 PWs)   bands (ev):

   -66.4405 -66.4404 -66.4376 -66.4368 -61.8500 -61.8499 -61.8481 -61.8474
   -35.2306 -35.2305 -35.2277 -35.2269 -35.1645 -35.1637 -35.1604 -35.1599
   -35.1513 -35.1497 -35.1455 -35.1428 -30.6852 -30.6850 -30.6833 -30.6828
   -30.6764 -30.6761 -30.6748 -30.6740 -30.6732 -30.6702 -30.6637 -30.6594
     6.0935   7.0014   8.1061   8.2081   8.2181   8.3714   8.5684   8.5798
     8.6420   8.6536   9.0353   9.0376   9.2938   9.3489   9.4630   9.4950
     9.5095   9.5503   9.5685   9.6075   9.6141   9.6155   9.6606   9.6682
     9.6983   9.7043   9.7671   9.8133   9.8424   9.8518   9.9150   9.9437
     9.9467  10.0596  10.0670  10.1245  10.1507  10.1525  10.1912  10.2454
    10.3012  10.3056  10.3276  10.3770  10.3880  10.4703  10.5212  10.5220
    10.5350  10.5395  10.6252  10.6527  10.8311  10.8509  10.8574  10.8731
    10.9125  10.9592  11.0422  11.0834  11.0889  11.1056  11.1370  11.1976
    11.2647  11.3222  11.3988  11.4290  11.4811  11.5067  11.6283  11.6962
    11.7405  11.8359  11.8688  11.8719  11.8758  11.9325  11.9414  12.0183
    12.0538  12.1364  12.2089  12.2094  12.2165  12.2471  12.2516  12.2647
    12.2722  12.2922  12.3355  12.3769  12.4837  12.5607  12.6105  12.6132
    12.6220  12.6567  12.6657  12.7263  12.7638  12.8036  12.8477  12.8587
    12.9447  12.9472  13.0151  13.3207  13.8792  13.9191  14.8556  15.0148
    15.1879  15.2444  15.7643  16.1586  16.2853  16.3369  16.4079  16.4651
    16.5139  16.8784  16.9665  17.1141  17.3082  17.3374  17.3921  17.4154
    17.4747  17.4982  17.5989  17.6450  17.6733  18.0978  18.1741  18.2013
    18.2292  18.2391  18.8691  18.9214  19.1549  19.3430  19.5504  19.6637
    19.8405  19.9850

          k = 0.1768-0.1768-0.5441 ( 13695 PWs)   bands (ev):

   -66.4405 -66.4404 -66.4376 -66.4368 -61.8500 -61.8499 -61.8481 -61.8474
   -35.2306 -35.2305 -35.2277 -35.2269 -35.1645 -35.1637 -35.1604 -35.1599
   -35.1513 -35.1497 -35.1455 -35.1428 -30.6852 -30.6851 -30.6833 -30.6829
   -30.6764 -30.6761 -30.6748 -30.6740 -30.6732 -30.6702 -30.6637 -30.6594
     6.6735   7.5219   7.7433   8.3199   8.5042   8.6023   8.7750   8.7961
     8.8256   8.9254   8.9714   8.9874   9.0061   9.0859   9.1278   9.1370
     9.1783   9.2712   9.2770   9.4010   9.4818   9.5448   9.5559   9.5648
     9.6183   9.6432   9.6761   9.6781   9.7114   9.7828   9.8247   9.8432
     9.8616   9.8802   9.8946   9.9559  10.0789  10.1382  10.1794  10.2505
    10.3351  10.4475  10.4657  10.5112  10.5362  10.5728  10.5762  10.5965
    10.6640  10.7306  10.7618  10.7768  10.8182  10.8589  10.8954  10.9073
    10.9644  11.0613  11.0655  11.1260  11.2280  11.3151  11.3266  11.3363
    11.3895  11.4087  11.5118  11.5209  11.5980  11.6127  11.6482  11.7177
    11.7666  11.7804  11.8321  11.8805  11.9331  11.9507  11.9638  12.0155
    12.0706  12.1146  12.1277  12.1280  12.1907  12.2594  12.2740  12.2867
    12.3279  12.3417  12.3553  12.3896  12.4147  12.4654  12.5056  12.5495
    12.6051  12.7144  12.7324  12.7639  12.8408  12.8897  12.8961  12.9625
    13.0361  13.3570  13.3584  13.4018  13.4566  13.6103  14.2758  14.3055
    14.6339  14.8236  15.3374  15.4679  15.7822  15.9537  16.0634  16.3641
    16.6143  16.8307  17.1086  17.1244  17.1691  17.3064  17.3596  17.4689
    17.4871  17.4984  17.5372  17.5401  17.6745  17.9040  17.9044  17.9393
    18.3195  18.3894  18.7580  18.8661  18.9969  19.0878  19.2447  19.3000
    19.7833  19.9509

          k = 0.1768-0.1768 1.0883 ( 13696 PWs)   bands (ev):

   -66.4405 -66.4404 -66.4376 -66.4368 -61.8500 -61.8499 -61.8481 -61.8474
   -35.2306 -35.2305 -35.2277 -35.2269 -35.1645 -35.1637 -35.1604 -35.1600
   -35.1513 -35.1497 -35.1455 -35.1428 -30.6853 -30.6851 -30.6834 -30.6829
   -30.6764 -30.6761 -30.6748 -30.6740 -30.6732 -30.6701 -30.6636 -30.6594
     7.8705   8.1973   8.2074   8.4292   8.4349   8.5096   8.5626   8.6051
     8.6533   8.6816   8.7390   8.8349   8.8409   8.9427   8.9885   9.0936
     9.1318   9.3491   9.4620   9.4807   9.4889   9.5202   9.5516   9.6122
     9.6353   9.6624   9.6997   9.7021   9.7842   9.7878   9.8132   9.8503
     9.8712   9.8715   9.8741   9.9353  10.0244  10.0756  10.1002  10.1163
    10.1974  10.1999  10.2276  10.2391  10.3257  10.3355  10.3498  10.4013
    10.4240  10.6093  10.6264  10.6917  10.6995  10.7085  10.7334  10.7789
    10.8078  10.9294  10.9805  11.1934  11.2476  11.2687  11.3358  11.3474
    11.4407  11.5051  11.5311  11.6135  11.6295  11.7353  11.7372  11.7565
    11.8084  11.8353  11.8778  11.9416  12.0316  12.0427  12.1016  12.1128
    12.1807  12.2016  12.2226  12.3058  12.3086  12.3416  12.3774  12.4202
    12.4370  12.4876  12.5098  12.5103  12.5557  12.6188  12.6371  12.7670
    12.7801  12.7844  12.8145  12.8204  12.9071  12.9576  13.0556  13.0846
    13.1188  13.1596  13.1634  13.1952  13.8180  13.8284  13.9671  13.9804
    14.5652  14.8848  14.9976  15.2737  15.3207  15.4445  15.8060  16.2777
    16.5612  16.8043  16.9060  17.0192  17.0466  17.2904  17.3129  17.3331
    17.4615  17.4745  17.5370  17.5583  17.7543  17.8855  17.8936  17.8961
    17.9667  18.1284  18.2636  18.3041  18.4205  18.5749  19.0699  19.1535
    19.1707  19.4537

          k = 0.0000-0.3536-0.1360 ( 13676 PWs)   bands (ev):

   -66.4407 -66.4402 -66.4377 -66.4367 -61.8503 -61.8496 -61.8482 -61.8472
   -35.2305 -35.2305 -35.2277 -35.2269 -35.1641 -35.1641 -35.1604 -35.1600
   -35.1509 -35.1506 -35.1443 -35.1436 -30.6851 -30.6851 -30.6833 -30.6828
   -30.6763 -30.6761 -30.6744 -30.6736 -30.6727 -30.6724 -30.6614 -30.6609
     6.2544   7.1296   7.4382   8.0937   8.2209   8.5030   8.6897   8.7565
     8.8305   8.8452   9.0758   9.0923   9.2392   9.3291   9.3771   9.3789
     9.3795   9.4374   9.4684   9.5282   9.5350   9.5916   9.6348   9.6883
     9.7237   9.7360   9.7445   9.7478   9.9290   9.9693   9.9698   9.9813
     9.9975  10.0073  10.0269  10.0825  10.1232  10.1378  10.2201  10.2570
    10.3107  10.3646  10.3888  10.4352  10.4388  10.4397  10.5172  10.6082
    10.6595  10.6917  10.7070  10.7352  10.7766  10.8227  10.9086  10.9211
    10.9250  10.9547  10.9747  11.0076  11.1092  11.1305  11.1976  11.2216
    11.2822  11.3038  11.3218  11.3368  11.4261  11.5054  11.5778  11.5780
    11.5926  11.7163  11.7277  11.7500  11.8384  11.9249  11.9328  11.9467
    11.9926  11.9969  12.0543  12.0795  12.0974  12.1044  12.1787  12.2455
    12.2890  12.3081  12.3521  12.3731  12.4187  12.5147  12.5908  12.6106
    12.6230  12.6461  12.6872  12.7049  12.7905  12.8132  12.8551  12.9942
    13.0880  13.2847  13.3451  13.7634  13.8975  14.6415  14.6596  15.0946
    15.4292  15.5793  15.6072  15.9030  15.9639  16.1488  16.1966  16.3421
    16.5381  17.0088  17.0180  17.2954  17.3282  17.3696  17.3720  17.4125
    17.4752  17.5693  17.5853  17.6421  17.7200  18.0068  18.0920  18.1397
    18.2534  18.5113  18.6332  18.6500  18.9324  19.0408  19.3211  19.6467
    19.6801  20.1612

          k = 0.0000-0.3536-0.6802 ( 13702 PWs)   bands (ev):

   -66.4407 -66.4402 -66.4377 -66.4367 -61.8503 -61.8496 -61.8482 -61.8472
   -35.2305 -35.2305 -35.2277 -35.2269 -35.1641 -35.1641 -35.1604 -35.1600
   -35.1509 -35.1506 -35.1443 -35.1436 -30.6852 -30.6852 -30.6833 -30.6829
   -30.6763 -30.6761 -30.6744 -30.6736 -30.6727 -30.6723 -30.6614 -30.6609
     7.0851   7.1449   7.8754   7.9125   8.5789   8.7215   8.8233   8.8491
     8.8573   8.9582   8.9621   9.0340   9.0900   9.1125   9.1699   9.2133
     9.2268   9.2346   9.2933   9.3785   9.3962   9.4725   9.4882   9.5164
     9.5212   9.5616   9.6548   9.6770   9.6950   9.7464   9.8653   9.8787
     9.8904   9.8983  10.0017  10.0540  10.0944  10.2332  10.2686  10.3109
    10.3395  10.3513  10.4149  10.4315  10.4707  10.5315  10.5733  10.5987
    10.6251  10.7115  10.7829  10.8045  10.8498  10.8773  10.9077  10.9489
    10.9601  11.0136  11.0722  11.1348  11.1654  11.1875  11.2188  11.2555
    11.2560  11.3489  11.3882  11.4588  11.5056  11.5290  11.5752  11.6938
    11.7396  11.7633  11.7691  11.8381  11.8692  11.8743  11.9550  11.9933
    12.0117  12.1012  12.1052  12.1438  12.1821  12.2354  12.2540  12.3060
    12.3417  12.3578  12.3756  12.3911  12.4027  12.4503  12.5127  12.5193
    12.5980  12.6424  12.7804  12.8001  12.8744  12.8821  12.9354  13.0636
    13.0882  13.2211  13.6705  13.7750  14.0439  14.0855  14.2505  14.3718
    14.9701  15.1108  15.3830  15.4664  15.5725  15.8078  16.2295  16.2385
    16.5810  16.6139  17.0712  17.0768  17.1722  17.2513  17.3335  17.4536
    17.4803  17.4932  17.5038  17.6981  17.7375  17.9159  17.9259  17.9339
    18.0745  18.2225  18.3237  18.4397  18.7303  19.1690  19.5257  19.5953
    19.8969  19.9467

          k = 0.0000-0.3536 0.9522 ( 13693 PWs)   bands (ev):

   -66.4408 -66.4401 -66.4377 -66.4367 -61.8503 -61.8495 -61.8482 -61.8472
   -35.2306 -35.2305 -35.2277 -35.2269 -35.1642 -35.1641 -35.1604 -35.1600
   -35.1509 -35.1506 -35.1443 -35.1436 -30.6852 -30.6852 -30.6833 -30.6829
   -30.6763 -30.6761 -30.6744 -30.6736 -30.6727 -30.6723 -30.6614 -30.6609
     7.7548   7.8480   8.3556   8.4011   8.4550   8.4848   8.5630   8.6237
     8.6634   8.7121   8.8456   8.8988   8.9623   9.0022   9.0155   9.0964
     9.1111   9.2414   9.2705   9.3354   9.3583   9.4996   9.5057   9.5861
     9.5932   9.5954   9.6214   9.6771   9.7089   9.7497   9.7767   9.8216
     9.8545   9.8715   9.8960   9.9537  10.0268  10.0418  10.0552  10.1583
    10.2169  10.2764  10.2868  10.3614  10.3831  10.5313  10.5548  10.5997
    10.6867  10.6876  10.7449  10.7457  10.7509  10.8202  10.8514  10.8816
    10.9193  11.0146  11.0330  11.1582  11.2135  11.3457  11.3512  11.3617
    11.4655  11.4834  11.6258  11.6617  11.6923  11.7061  11.8122  11.8909
    11.8974  11.9076  11.9457  11.9498  11.9697  12.0331  12.0626  12.0880
    12.0957  12.1738  12.1892  12.2334  12.2844  12.3014  12.3253  12.3284
    12.4378  12.4470  12.4577  12.4729  12.5596  12.6225  12.6541  12.6703
    12.6964  12.7086  12.8156  12.8381  12.8443  12.8905  12.9560  13.0027
    13.0957  13.1450  13.1552  13.4409  13.6649  13.7093  13.8197  13.9417
    14.0164  14.1085  14.8929  15.4997  15.5241  15.5377  15.8287  15.8708
    16.5420  16.7372  16.8593  17.0893  17.1673  17.2998  17.3003  17.3439
    17.4555  17.5215  17.5426  17.5762  17.6187  17.8292  17.8648  17.8929
    17.9107  18.0410  18.2710  18.5198  18.5704  18.6175  18.6858  19.2340
    19.6677  20.0765

          k = 0.0000-0.3536 0.4081 ( 13687 PWs)   bands (ev):

   -66.4407 -66.4401 -66.4377 -66.4367 -61.8503 -61.8496 -61.8482 -61.8472
   -35.2305 -35.2305 -35.2277 -35.2269 -35.1642 -35.1641 -35.1604 -35.1600
   -35.1509 -35.1506 -35.1443 -35.1436 -30.6852 -30.6851 -30.6833 -30.6829
   -30.6763 -30.6761 -30.6744 -30.6736 -30.6727 -30.6723 -30.6614 -30.6609
     6.5443   7.4069   8.2303   8.3471   8.4749   8.4923   8.5838   8.6081
     8.7013   8.7784   8.9360   9.0527   9.1021   9.1070   9.1153   9.2064
     9.2189   9.3366   9.3387   9.3680   9.3997   9.5074   9.5215   9.6001
     9.6295   9.6595   9.7284   9.7377   9.7693   9.8059   9.8119   9.8642
     9.8848   9.9170   9.9332   9.9367  10.0328  10.1095  10.1411  10.2234
    10.2331  10.3456  10.4175  10.4589  10.5531  10.5646  10.5704  10.5712
    10.6736  10.8390  10.8500  10.9384  10.9387  10.9825  10.9886  11.0022
    11.0777  11.1173  11.1346  11.1481  11.2133  11.2800  11.3334  11.4039
    11.4085  11.4829  11.5860  11.5973  11.6120  11.6543  11.6915  11.8160
    11.8221  11.8844  11.8974  11.9017  11.9435  11.9852  11.9940  12.0001
    12.0335  12.0787  12.1781  12.1808  12.1929  12.2331  12.2432  12.2446
    12.3196  12.3368  12.3386  12.3723  12.4287  12.4666  12.4948  12.6059
    12.6167  12.6177  12.6774  12.7454  12.7651  12.7723  12.8128  12.8486
    12.8786  12.9524  13.0256  13.0709  13.2008  14.1951  14.3527  14.4074
    14.6137  15.0670  15.0961  15.2074  15.2116  15.9736  16.3124  16.4107
    16.5633  16.7603  16.9943  17.1191  17.1737  17.3797  17.4766  17.4880
    17.5202  17.5447  17.5480  17.6098  17.8105  17.9096  17.9629  18.0752
    18.1591  18.1861  18.2547  18.7416  18.9979  19.0710  19.1516  19.5167
    20.0843  20.3198

          k = 0.5303 0.1768 0.2721 ( 13658 PWs)   bands (ev):

   -66.4409 -66.4400 -66.4378 -66.4366 -61.8503 -61.8495 -61.8483 -61.8471
   -35.2305 -35.2305 -35.2277 -35.2269 -35.1645 -35.1637 -35.1604 -35.1599
   -35.1513 -35.1498 -35.1455 -35.1428 -30.6852 -30.6850 -30.6833 -30.6828
   -30.6764 -30.6760 -30.6749 -30.6739 -30.6732 -30.6702 -30.6637 -30.6594
     6.7085   6.7154   7.5539   7.5700   8.4697   8.5600   8.7760   8.8808
     8.9560   8.9571   8.9816   9.0530   9.2178   9.2644   9.3201   9.3300
     9.4071   9.4378   9.4423   9.4689   9.5066   9.5158   9.6087   9.6291
     9.6371   9.7274   9.7299   9.7818   9.8126   9.8468   9.9547   9.9806
     9.9922  10.0313  10.1553  10.1923  10.2468  10.2652  10.2673  10.2738
    10.3039  10.3618  10.3931  10.4259  10.5015  10.5301  10.5328  10.6026
    10.6352  10.6659  10.7661  10.7775  10.8356  10.8377  10.8618  10.9176
    10.9866  10.9894  11.0098  11.1116  11.1213  11.1333  11.1632  11.2874
    11.3001  11.3037  11.3242  11.3420  11.3670  11.4462  11.5039  11.5200
    11.5524  11.5726  11.5991  11.6119  11.7195  11.7378  11.8188  11.8323
[...]
    11.7768  11.7949  11.8055  11.8537  11.9102  11.9110  11.9521  11.9779
    11.9981  12.0065  12.0078  12.1919  12.1992  12.2227  12.2464  12.2530
    12.2856  12.2892  12.3682  12.3710  12.3998  12.4347  12.5194  12.5691
    12.5851  12.6312  12.6422  12.6665  12.7592  12.7817  12.8349  12.8458
    12.8665  12.8767  12.9551  13.1586  13.4427  13.6622  14.7316  14.8336
    14.8748  15.2449  15.3948  15.4870  15.5475  15.6578  15.7730  15.9180
    16.2334  16.6631  17.0237  17.0702  17.1914  17.3603  17.4298  17.5055
    17.5346  17.5552  17.5958  17.6177  17.7299  17.7731  17.9483  17.9992
    18.0205  18.1694  18.2254  18.4771  19.3879  19.3903  19.6894  19.6897
    19.7734  19.8155

          k = 0.0000 0.7071 0.2721 ( 13680 PWs)   bands (ev):

   -66.4408 -66.4395 -66.4385 -66.4367 -61.8508 -61.8496 -61.8481 -61.8465
   -35.2303 -35.2303 -35.2282 -35.2271 -35.1645 -35.1633 -35.1611 -35.1598
   -35.1515 -35.1487 -35.1469 -35.1425 -30.6855 -30.6853 -30.6831 -30.6824
   -30.6769 -30.6763 -30.6752 -30.6736 -30.6730 -30.6683 -30.6655 -30.6587
     6.9558   7.0513   7.0514   7.1542   8.5671   8.7494   8.7497   8.9571
     8.9739   8.9926   9.1303   9.1304   9.1816   9.1850   9.1853   9.2158
     9.3231   9.4142   9.4146   9.4234   9.4521   9.5152   9.5157   9.6686
     9.6688   9.7610   9.8443   9.8894   9.8917   9.9189   9.9369   9.9374
     9.9859  10.0743  10.0745  10.1574  10.1902  10.1902  10.2056  10.2307
    10.2458  10.3836  10.4946  10.4949  10.5855  10.5861  10.5864  10.6492
    10.7252  10.7525  10.7530  10.8055  10.8300  10.8304  10.8593  10.8690
    11.0597  11.1213  11.1214  11.1532  11.1686  11.1911  11.1914  11.2594
    11.2597  11.3193  11.3403  11.3632  11.3800  11.3962  11.3968  11.4158
    11.4347  11.5884  11.5887  11.6387  11.7202  11.7517  11.7526  11.7543
    11.8327  11.9318  11.9554  11.9558  12.0146  12.1222  12.2368  12.2376
    12.2704  12.3075  12.3079  12.3814  12.4400  12.4405  12.4482  12.5932
    12.5996  12.6622  12.6623  12.7780  12.8992  12.8997  13.0959  13.1409
    13.3652  13.6270  13.6273  13.9282  14.0082  14.6725  14.6727  14.9215
    15.0259  15.4189  15.6771  15.6771  15.7322  15.7329  16.2966  16.4376
    17.0717  17.0735  17.1647  17.1774  17.2962  17.3175  17.4193  17.5300
    17.5312  17.6886  17.7016  17.7951  17.7967  18.0117  18.0130  18.1142
    18.1648  18.1654  18.4723  18.5903  18.6672  19.0575  19.0583  19.3653
    20.4922  20.5473

          k = 0.0000 0.7071-0.2721 ( 13688 PWs)   bands (ev):

   -66.4408 -66.4395 -66.4385 -66.4367 -61.8509 -61.8496 -61.8481 -61.8465
   -35.2303 -35.2303 -35.2282 -35.2271 -35.1645 -35.1633 -35.1611 -35.1598
   -35.1515 -35.1487 -35.1469 -35.1425 -30.6855 -30.6853 -30.6831 -30.6824
   -30.6769 -30.6763 -30.6752 -30.6736 -30.6729 -30.6683 -30.6655 -30.6587
     7.0460   7.0515   7.9119   7.9184   8.7133   8.7254   8.7321   8.7468
     8.7498   8.7521   9.0508   9.0882   9.0926   9.1147   9.1313   9.1818
     9.1849   9.2276   9.2903   9.3770   9.4116   9.4140   9.4326   9.4749
     9.5177   9.6292   9.6688   9.6941   9.7973   9.8524   9.8694   9.8758
     9.9310   9.9542   9.9944  10.0744  10.0946  10.1906  10.1911  10.2038
    10.2210  10.3057  10.4964  10.5376  10.5602  10.5803  10.6277  10.6867
    10.7340  10.7524  10.8295  10.8508  10.8704  10.9671  11.0277  11.0832
    11.1205  11.1507  11.1615  11.1665  11.1731  11.1929  11.2186  11.2606
    11.3943  11.3961  11.4569  11.4744  11.5875  11.5931  11.6183  11.6310
    11.6763  11.7225  11.7512  11.7965  11.8747  11.9369  11.9579  11.9914
    12.0159  12.0287  12.0809  12.1411  12.1681  12.2374  12.2533  12.2804
    12.3091  12.3276  12.3347  12.3351  12.4139  12.4163  12.4407  12.4539
    12.6159  12.6599  12.6632  12.7258  12.7546  12.9005  13.0564  13.0707
    13.1940  13.2666  13.2856  13.5881  13.6287  13.6531  14.3257  14.6680
    14.6836  14.8831  15.6119  15.6697  15.7438  15.7576  15.8522  16.3214
    16.5059  16.5538  17.0116  17.0890  17.2454  17.3882  17.4260  17.4434
    17.4634  17.5180  17.6212  17.6937  17.7323  17.7917  18.0112  18.0836
    18.1122  18.1673  18.1695  18.2617  18.3561  18.5496  19.0555  19.0589
    20.5463  20.6869

          k = 0.0000 0.7071 1.3603 ( 13696 PWs)   bands (ev):

   -66.4409 -66.4395 -66.4385 -66.4367 -61.8509 -61.8496 -61.8482 -61.8465
   -35.2303 -35.2303 -35.2282 -35.2271 -35.1645 -35.1633 -35.1611 -35.1598
   -35.1515 -35.1487 -35.1469 -35.1425 -30.6856 -30.6854 -30.6832 -30.6825
   -30.6769 -30.6763 -30.6752 -30.6736 -30.6729 -30.6682 -30.6654 -30.6587
     7.7759   7.9186   7.9188   8.0787   8.5412   8.5717   8.7168   8.7169
     8.7497   8.7497   8.9563   8.9634   8.9659   8.9752   9.0653   9.0935
     9.0937   9.2163   9.2248   9.2253   9.3239   9.4125   9.4126   9.4536
     9.4743   9.4746   9.5657   9.6274   9.6277   9.6701   9.7612   9.8571
     9.8665   9.8746   9.8748   9.8881   9.9121  10.1779  10.1902  10.1904
    10.2211  10.2212  10.2296  10.3808  10.4660  10.5862  10.6852  10.6858
    10.8243  10.8504  10.8507  10.8582  11.0260  11.0263  11.0590  11.1531
    11.1663  11.1664  11.2772  11.2778  11.3686  11.4165  11.4313  11.4573
    11.4576  11.5733  11.6700  11.6708  11.7168  11.7182  11.7717  11.9422
    11.9452  11.9457  11.9535  12.0174  12.0286  12.0295  12.0350  12.0827
    12.0831  12.0881  12.1164  12.1223  12.1293  12.2697  12.2796  12.2798
    12.2929  12.3344  12.3347  12.3826  12.4479  12.4547  12.4550  12.5954
    12.5957  12.6005  12.6619  12.6619  12.7549  12.7550  12.7797  13.0555
    13.1007  13.1406  13.2670  13.2672  13.4524  13.6559  13.6561  13.9326
    14.0022  14.6833  14.6835  15.0372  15.4180  15.8472  15.8477  16.3230
    16.5527  16.5529  16.8289  17.0875  17.1633  17.1780  17.2993  17.4292
    17.4373  17.4392  17.4436  17.4450  17.5849  17.6490  17.6860  17.7341
    17.7351  18.1123  18.1141  18.3420  18.3436  18.3527  18.4678  18.6709
    20.4917  20.7670

          k = 0.1768-0.1768 0.5441 ( 13695 PWs)   bands (ev):

   -66.4402 -66.4401 -66.4383 -66.4370 -61.8503 -61.8502 -61.8477 -61.8469
   -35.2303 -35.2303 -35.2282 -35.2271 -35.1644 -35.1634 -35.1611 -35.1598
   -35.1513 -35.1496 -35.1458 -35.1429 -30.6855 -30.6854 -30.6831 -30.6824
   -30.6767 -30.6765 -30.6747 -30.6736 -30.6729 -30.6702 -30.6635 -30.6593
     6.6739   7.5325   7.7242   8.3242   8.5418   8.6152   8.7311   8.7960
     8.7998   8.8490   8.9344   8.9572   9.0076   9.1274   9.1570   9.1843
     9.2680   9.3105   9.3234   9.3380   9.4573   9.5163   9.5246   9.5322
     9.6497   9.6569   9.6993   9.7002   9.7461   9.7712   9.7986   9.8117
     9.8278   9.9434   9.9608  10.0032  10.0169  10.0810  10.2302  10.2576
    10.3280  10.3621  10.4401  10.4644  10.5309  10.6054  10.6258  10.6432
    10.6694  10.6841  10.7361  10.8263  10.8306  10.8762  10.9244  10.9330
    10.9422  11.0373  11.0713  11.0961  11.1408  11.2519  11.2913  11.4247
    11.4445  11.4906  11.4938  11.5680  11.6092  11.6216  11.6302  11.6679
    11.6889  11.6910  11.8165  11.8391  11.9313  12.0031  12.0185  12.0603
    12.0980  12.1105  12.1133  12.1161  12.1888  12.2047  12.2780  12.3197
    12.3248  12.3316  12.3346  12.3474  12.3618  12.4527  12.5038  12.5370
    12.5926  12.6239  12.7276  12.7857  12.9273  12.9983  13.0573  13.1170
    13.1568  13.1768  13.2852  13.3598  13.3771  13.6790  14.0359  14.6577
    14.6810  14.9455  15.2327  15.2742  15.6704  15.8061  15.9772  16.3911
    16.5569  17.0104  17.0451  17.2539  17.3339  17.3491  17.3824  17.4527
    17.4811  17.5261  17.5283  17.6736  17.6907  17.9029  17.9675  18.0243
    18.1533  18.3013  18.5262  18.7504  18.9902  19.1496  19.2911  19.3068
    19.8148  20.1499

          k = 0.3536 0.0000 0.1360 ( 13676 PWs)   bands (ev):

   -66.4405 -66.4398 -66.4383 -66.4369 -61.8505 -61.8500 -61.8479 -61.8468
   -35.2303 -35.2303 -35.2282 -35.2271 -35.1645 -35.1633 -35.1611 -35.1598
   -35.1515 -35.1487 -35.1469 -35.1425 -30.6855 -30.6853 -30.6831 -30.6824
   -30.6768 -30.6764 -30.6752 -30.6736 -30.6729 -30.6683 -30.6655 -30.6587
     6.2526   7.1495   7.4103   8.1097   8.2434   8.4507   8.7064   8.7262
     8.8427   8.8516   9.1453   9.1823   9.2050   9.2737   9.3225   9.3243
     9.4257   9.4600   9.4804   9.5157   9.5767   9.5925   9.6196   9.6582
     9.6591   9.6754   9.7402   9.7614   9.9205   9.9402   9.9842  10.0140
    10.0319  10.0565  10.0567  10.0800  10.1473  10.1732  10.1933  10.2152
    10.3480  10.3538  10.3846  10.3855  10.4690  10.5093  10.5602  10.5678
    10.6358  10.6490  10.7082  10.7101  10.8113  10.8369  10.8695  10.8786
    10.9204  10.9404  11.0277  11.0371  11.0996  11.1451  11.1728  11.2006
    11.2160  11.3067  11.3536  11.3566  11.3972  11.4790  11.5501  11.6215
    11.7116  11.7543  11.7632  11.7910  11.8062  11.8283  11.8551  11.9582
    12.0081  12.0188  12.0491  12.0867  12.1235  12.1963  12.2013  12.2092
    12.2757  12.2903  12.3281  12.3623  12.4336  12.4802  12.4929  12.5129
    12.5297  12.6276  12.6987  12.8154  12.8476  12.8926  12.9469  13.0137
    13.1477  13.1984  13.3973  13.5840  13.9533  14.5068  14.9480  14.9896
    15.1517  15.6748  15.6898  15.8904  16.0718  16.2439  16.2905  16.4527
    16.4598  16.8929  16.8977  17.2049  17.2513  17.2909  17.3003  17.4229
    17.5459  17.5671  17.5701  17.7032  17.7816  18.0137  18.0400  18.1733
    18.3949  18.5337  18.6273  18.7004  18.8096  19.1221  19.4162  19.5558
    19.6879  20.1756

          k = 0.3536 0.0000 0.6802 ( 13702 PWs)   bands (ev):

   -66.4405 -66.4398 -66.4383 -66.4369 -61.8505 -61.8500 -61.8478 -61.8468
   -35.2303 -35.2303 -35.2282 -35.2271 -35.1645 -35.1633 -35.1611 -35.1598
   -35.1515 -35.1487 -35.1469 -35.1425 -30.6855 -30.6853 -30.6832 -30.6824
   -30.6768 -30.6764 -30.6752 -30.6736 -30.6729 -30.6683 -30.6655 -30.6587
     7.0810   7.1494   7.8706   7.9174   8.6149   8.6968   8.7994   8.8176
     8.8450   8.9236   9.0126   9.0179   9.1006   9.1082   9.1429   9.2041
     9.2393   9.2520   9.3222   9.3242   9.4260   9.4788   9.4933   9.5618
     9.5940   9.6257   9.6454   9.6609   9.6687   9.7203   9.8068   9.8391
     9.9320   9.9838   9.9967  10.0284  10.1079  10.1948  10.1980  10.2465
    10.3441  10.3569  10.5085  10.5146  10.5267  10.5655  10.5723  10.6001
    10.6948  10.7098  10.7206  10.7544  10.7848  10.8785  10.8807  10.9110
    10.9191  10.9817  11.0415  11.1050  11.1395  11.1994  11.2054  11.2903
    11.3789  11.3922  11.4248  11.4987  11.5494  11.5632  11.5858  11.6346
    11.6437  11.6519  11.7496  11.7627  11.7788  11.9813  11.9898  12.0353
    12.0475  12.0527  12.0915  12.1529  12.1750  12.2108  12.2713  12.2928
    12.3235  12.3288  12.3303  12.3910  12.3931  12.4276  12.4810  12.5370
    12.6145  12.6257  12.7400  12.7668  12.9480  13.0070  13.0148  13.0410
    13.3655  13.3959  13.6152  13.6180  13.9740  14.0559  14.0606  14.4786
    14.9511  15.2183  15.2890  15.4871  15.5953  15.8950  15.9832  16.1678
    16.2949  16.9921  17.1658  17.1933  17.2186  17.2854  17.2963  17.3300
    17.4716  17.5787  17.6590  17.7008  17.7417  17.7856  17.9054  17.9154
    18.0143  18.1506  18.3708  18.5321  18.7033  19.1184  19.5424  19.5548
    19.7243  20.1781

          k = 0.3536 0.0000-0.9522 ( 13693 PWs)   bands (ev):

   -66.4405 -66.4398 -66.4384 -66.4369 -61.8505 -61.8500 -61.8479 -61.8468
   -35.2304 -35.2303 -35.2282 -35.2271 -35.1645 -35.1633 -35.1611 -35.1598
   -35.1515 -35.1487 -35.1469 -35.1425 -30.6856 -30.6854 -30.6832 -30.6825
   -30.6768 -30.6764 -30.6751 -30.6736 -30.6729 -30.6682 -30.6655 -30.6587
     7.7418   7.8707   8.3639   8.3665   8.4549   8.4680   8.4774   8.7052
     8.7482   8.7758   8.8226   8.8520   8.8736   9.0179   9.0319   9.0496
     9.2109   9.2391   9.3196   9.3254   9.4594   9.4630   9.4780   9.5163
     9.5619   9.5999   9.6349   9.6454   9.6742   9.7120   9.7432   9.8059
     9.8965   9.9150   9.9371   9.9759   9.9957  10.0554  10.0792  10.1703
    10.1756  10.1992  10.2932  10.3828  10.5140  10.5548  10.5849  10.5867
    10.5920  10.6025  10.6493  10.7181  10.7857  10.8733  10.8755  10.8967
    10.9127  10.9394  11.1448  11.1994  11.2610  11.2731  11.3222  11.4200
    11.4806  11.5645  11.6493  11.6599  11.6949  11.7269  11.7542  11.7804
    11.8268  11.8432  11.9467  12.0081  12.0084  12.0477  12.1260  12.1326
    12.1575  12.1602  12.2026  12.2047  12.2398  12.3274  12.3280  12.3300
    12.3777  12.4302  12.4353  12.4868  12.4939  12.5382  12.6176  12.6559
    12.7003  12.7402  12.7928  12.8852  12.8946  12.9857  13.0175  13.0853
    13.1102  13.1430  13.1990  13.1990  13.5810  13.6194  13.8108  13.9567
    14.0560  14.4760  14.9422  14.9968  15.4675  15.5954  15.6679  16.4502
    16.4909  16.6376  16.9974  17.1594  17.2000  17.2243  17.2547  17.3701
    17.4362  17.4895  17.5041  17.5257  17.6831  17.7421  17.8208  17.8892
    17.8929  18.0272  18.3863  18.3906  18.5291  18.6327  18.7036  19.2923
    19.6858  20.0953

          k = 0.3536 0.0000-0.4081 ( 13687 PWs)   bands (ev):

   -66.4405 -66.4398 -66.4384 -66.4369 -61.8505 -61.8500 -61.8479 -61.8468
   -35.2303 -35.2303 -35.2282 -35.2271 -35.1645 -35.1633 -35.1611 -35.1598
   -35.1515 -35.1487 -35.1469 -35.1425 -30.6855 -30.6853 -30.6831 -30.6824
   -30.6768 -30.6764 -30.6752 -30.6736 -30.6729 -30.6683 -30.6655 -30.6587
     6.5421   7.4106   8.2442   8.3667   8.4661   8.4676   8.6022   8.6167
     8.6942   8.7756   8.9247   9.0466   9.1080   9.1470   9.1800   9.2079
     9.2114   9.2357   9.2526   9.4586   9.4816   9.4907   9.4966   9.6085
     9.6231   9.6380   9.6669   9.6720   9.7133   9.7194   9.7584   9.8636
     9.9152   9.9207   9.9327  10.0545  10.0795  10.1439  10.1725  10.1756
    10.3524  10.3575  10.4929  10.5273  10.5732  10.5891  10.6023  10.6338
    10.6752  10.7053  10.7544  10.8733  10.8739  10.8779  10.9393  10.9414
    11.0031  11.1406  11.1746  11.2172  11.2732  11.2857  11.3493  11.3983
    11.4575  11.4991  11.5607  11.5662  11.6213  11.7047  11.7460  11.7905
    11.8126  11.9110  11.9139  11.9460  11.9858  11.9908  12.0192  12.0370
    12.0907  12.0956  12.1347  12.1487  12.1866  12.1951  12.2396  12.2489
    12.2776  12.3304  12.3603  12.3904  12.4031  12.4332  12.4888  12.5118
    12.6146  12.6527  12.6584  12.7400  12.7638  12.7688  12.8155  12.8497
    12.8841  13.0082  13.0839  13.1134  13.1939  13.9684  14.0585  14.2686
    14.8635  15.1476  15.2175  15.2897  15.4595  16.0704  16.1778  16.4631
    16.4970  16.6470  16.9108  17.0574  17.2299  17.3405  17.3731  17.5202
    17.5230  17.5439  17.5675  17.5701  17.6920  17.8901  17.8982  17.9221
    18.3703  18.3828  18.5246  18.7012  18.8098  19.1202  19.1245  19.5458
    20.0955  20.3211

          k =-0.1768-0.5303 0.2721 ( 13683 PWs)   bands (ev):

   -66.4406 -66.4397 -66.4384 -66.4368 -61.8507 -61.8498 -61.8480 -61.8467
   -35.2303 -35.2303 -35.2282 -35.2271 -35.1643 -35.1635 -35.1611 -35.1598
   -35.1513 -35.1496 -35.1458 -35.1429 -30.6855 -30.6854 -30.6831 -30.6824
   -30.6768 -30.6764 -30.6747 -30.6736 -30.6729 -30.6702 -30.6635 -30.6593
     6.7157   7.5400   7.7026   8.2564   8.5274   8.5415   8.6845   8.7672
     8.8213   8.8860   8.8999   8.9821   9.0125   9.0862   9.2075   9.2379
     9.2647   9.2662   9.3208   9.3731   9.3977   9.4808   9.5634   9.5895
     9.6253   9.6260   9.6417   9.7018   9.7571   9.7846   9.8245   9.8640
     9.8720   9.9125   9.9702  10.0724  10.1046  10.1069  10.2787  10.2864
    10.3008  10.3023  10.4444  10.4864  10.4928  10.5428  10.5496  10.6059
    10.6735  10.7895  10.8077  10.8823  10.9064  10.9516  10.9612  10.9884
    11.0491  11.0833  11.0990  11.1557  11.1560  11.1659  11.2811  11.3245
    11.3704  11.4057  11.4244  11.4832  11.5468  11.6574  11.6770  11.6876
    11.7108  11.7203  11.7819  11.7826  11.8894  11.9121  11.9957  12.0068
    12.0201  12.0239  12.0918  12.1783  12.2195  12.2275  12.2608  12.2690
    12.2802  12.2836  12.3443  12.3724  12.3870  12.4568  12.4816  12.5649
    12.6362  12.6659  12.6910  12.7326  12.8531  12.8730  12.9176  12.9842
    13.1396  13.2235  13.2561  13.3487  13.7137  14.0553  14.2888  14.6509
    14.7474  15.1159  15.6062  15.6161  15.6219  15.6576  15.8579  16.0726
    16.5073  16.6396  17.1341  17.1739  17.2017  17.3747  17.4112  17.4233
    17.4835  17.5810  17.6176  17.6794  17.7631  17.7949  18.0089  18.0423
    18.1321  18.1557  18.3011  18.3839  18.3841  18.6322  19.0835  19.8985
    20.1333  20.2200

     the Fermi energy is    15.5867 ev

!    total energy              =  -14693.92773655 Ry
     Harris-Foulkes estimate   =  -14693.92772452 Ry
     estimated scf accuracy    <       0.00000094 Ry

     total all-electron energy =   -626921.523458 Ry

     The total energy is the sum of the following terms:

     one-electron contribution =    -698.40077950 Ry
     hartree contribution      =     651.60758961 Ry
     xc contribution           =    -738.13981045 Ry
     ewald contribution        =   -2207.56121140 Ry
     Hubbard energy            =       0.44873732 Ry
     one-center paw contrib.   =  -11701.88226213 Ry

     total magnetization       =    -0.00 Bohr mag/cell
     absolute magnetization    =    36.80 Bohr mag/cell

     convergence has been achieved in  21 iterations

     Writing output data file mnau2.save/
 
     init_run     :     24.80s CPU     25.75s WALL (       1 calls)
     electrons    :   1259.65s CPU   1296.58s WALL (       1 calls)

     Called by init_run:
     wfcinit      :     22.52s CPU     23.31s WALL (       1 calls)
     potinit      :      1.17s CPU      1.24s WALL (       1 calls)
     hinit0       :      0.66s CPU      0.70s WALL (       1 calls)

     Called by electrons:
     c_bands      :   1107.75s CPU   1138.72s WALL (      21 calls)
     sum_band     :    128.31s CPU    132.69s WALL (      21 calls)
     v_of_rho     :      1.90s CPU      1.94s WALL (      22 calls)
     newd         :      7.13s CPU      7.94s WALL (      22 calls)
     PAW_pot      :     15.16s CPU     15.24s WALL (      22 calls)
     mix_rho      :      0.29s CPU      0.32s WALL (      21 calls)

     Called by c_bands:
     init_us_2    :     10.02s CPU     10.07s WALL (    3168 calls)
     cegterg      :   1056.67s CPU   1087.00s WALL (    1512 calls)

     Called by sum_band:
     sum_band:bec :      1.13s CPU      1.15s WALL (    1512 calls)
     addusdens    :     13.32s CPU     14.68s WALL (      21 calls)

     Called by *egterg:
     h_psi        :    445.78s CPU    459.71s WALL (    5809 calls)
     s_psi        :     67.71s CPU     67.89s WALL (    5881 calls)
     g_psi        :      2.48s CPU      2.49s WALL (    4225 calls)
     cdiaghg      :    404.60s CPU    413.59s WALL (    5737 calls)

     Called by h_psi:
     h_psi:pot    :    423.60s CPU    434.73s WALL (    5809 calls)
     h_psi:calbec :     63.23s CPU     66.35s WALL (    5809 calls)
     vloc_psi     :    295.15s CPU    302.43s WALL (    5809 calls)
     add_vuspsi   :     65.17s CPU     65.91s WALL (    5809 calls)
     vhpsi        :     19.34s CPU     19.43s WALL (    5809 calls)

     General routines
     calbec       :    103.16s CPU    107.37s WALL (   14714 calls)
     fft          :      0.92s CPU      0.99s WALL (     546 calls)
     ffts         :      0.04s CPU      0.05s WALL (      86 calls)
     fftw         :    327.89s CPU    335.74s WALL ( 1484310 calls)
     interpolate  :      0.10s CPU      0.10s WALL (      44 calls)
     davcio       :      0.00s CPU      0.49s WALL (      72 calls)
 
     Parallel routines
     fft_scatt_xy :     40.80s CPU     41.74s WALL ( 1484942 calls)
     fft_scatt_yz :    105.32s CPU    108.19s WALL ( 1484942 calls)

     Hubbard U routines
     new_ns       :      5.68s CPU      6.09s WALL (      21 calls)
     vhpsi        :     19.34s CPU     19.43s WALL (    5809 calls)
 
     PWSCF        : 21m31.24s CPU    22m30.47s WALL

 
   This run was terminated on:  12:42:21  26Mar2019            

=------------------------------------------------------------------------------=
   JOB DONE.
=------------------------------------------------------------------------------=
