
     Program PWSCF v.6.0 (svn rev. 13079) starts on 19Mar2019 at 15:26:46 

     This program is part of the open-source Quantum ESPRESSO suite
     for quantum simulation of materials; please cite
         "P. Giannozzi et al., J. Phys.:Condens. Matter 21 395502 (2009);
          URL http://www.quantum-espresso.org", 
     in publications or presentations arising from this work. More details at
     http://www.quantum-espresso.org/quote

     Parallel version (MPI), running on    48 processors
     R & G space division:  proc/nbgrp/npool/nimage =      48
     Waiting for input...
     Reading input from standard input

     Current dimensions of program PWSCF are:
     Max number of different atomic species (ntypx) = 10
     Max number of k-points (npk) =  40000
     Max angular momentum in pseudopotentials (lmaxx) =  3
               file Mn.pbe-spn-kjpaw_psl.0.3.1.UPF: wavefunction(s)  3P 3D renormalized
               file Mn.pbe-spn-kjpaw_psl.0.3.1.UPF: wavefunction(s)  3P 3D renormalized
               file Au.pbe-dn-kjpaw_psl.0.1.UPF: wavefunction(s)  6S 6P 5D renormalized

     Subspace diagonalization in iterative solution of the eigenvalue problem:
     a serial algorithm will be used

     Found symmetry operation: I + (  0.0000 -0.3333  0.0000)
     This is a supercell, fractional translations are disabled
 
     Parallelization info
     --------------------
     sticks:   dense  smooth     PW     G-vecs:    dense   smooth      PW
     Min         245     110     30                17493     5280     752
     Max         246     111     31                17500     5284     755
     Sum       11785    5297   1449               839803   253559   36125
 


     bravais-lattice index     =            0
     lattice parameter (alat)  =      19.2459  a.u.
     unit-cell volume          =    6216.1497 (a.u.)^3
     number of atoms/cell      =           54
     number of atomic types    =            3
     number of electrons       =       666.00
     number of Kohn-Sham states=          400
     kinetic-energy cutoff     =      45.0000  Ry
     charge density cutoff     =     400.0000  Ry
     convergence threshold     =      1.0E-06
     mixing beta               =       0.1000
     number of iterations used =            8  plain     mixing
     Exchange-correlation      =  SLA  PW   PBX  PBC ( 1  4  3  4 0 0)

     celldm(1)=  19.245946  celldm(2)=   0.000000  celldm(3)=   0.000000
     celldm(4)=   0.000000  celldm(5)=   0.000000  celldm(6)=   0.000000

     crystal axes: (cart. coord. in units of alat)
               a(1) = (   1.000000   0.000000   0.000000 )  
               a(2) = (   0.000000   1.000000   0.000000 )  
               a(3) = (   0.000000   0.000000   0.871974 )  

     reciprocal axes: (cart. coord. in units 2 pi/alat)
               b(1) = (  1.000000  0.000000  0.000000 )  
               b(2) = (  0.000000  1.000000  0.000000 )  
               b(3) = (  0.000000  0.000000  1.146823 )  


     PseudoPot. # 1 for Mn read from file:
     ./pseudo/Mn.pbe-spn-kjpaw_psl.0.3.1.UPF
     MD5 check sum: 7eef95dd2aae66803482eea66ebeebf1
     Pseudo is Projector augmented-wave + core cor, Zval = 15.0
     Generated using "atomic" code by A. Dal Corso  v.5.0.99 svn rev. 10869
     Shape of augmentation charge: PSQ
     Using radial grid of 1187 points,  6 beta functions with: 
                l(1) =   0
                l(2) =   0
                l(3) =   1
                l(4) =   1
                l(5) =   2
                l(6) =   2
     Q(r) pseudized with 0 coefficients 


     PseudoPot. # 2 for Mn read from file:
     ./pseudo/Mn.pbe-spn-kjpaw_psl.0.3.1.UPF
     MD5 check sum: 7eef95dd2aae66803482eea66ebeebf1
     Pseudo is Projector augmented-wave + core cor, Zval = 15.0
     Generated using "atomic" code by A. Dal Corso  v.5.0.99 svn rev. 10869
     Shape of augmentation charge: PSQ
     Using radial grid of 1187 points,  6 beta functions with: 
                l(1) =   0
                l(2) =   0
                l(3) =   1
                l(4) =   1
                l(5) =   2
                l(6) =   2
     Q(r) pseudized with 0 coefficients 


     PseudoPot. # 3 for Au read from file:
     ./pseudo/Au.pbe-dn-kjpaw_psl.0.1.UPF
     MD5 check sum: 5c9b92683623e7ae2ab3f8e525febab6
     Pseudo is Projector augmented-wave + core cor, Zval = 11.0
     Generated using "atomic" code by A. Dal Corso  v.5.0.2 svn rev. 9415
     Shape of augmentation charge: PSQ
     Using radial grid of 1279 points,  6 beta functions with: 
                l(1) =   0
                l(2) =   0
                l(3) =   1
                l(4) =   1
                l(5) =   2
                l(6) =   2
     Q(r) pseudized with 0 coefficients 


     atomic species   valence    mass     pseudopotential
        Mn1           15.00    54.93800     Mn( 1.00)
        Mn2           15.00    54.93800     Mn( 1.00)
        Au            11.00   196.96600     Au( 1.00)

     Starting magnetic structure 
     atomic species   magnetization
        Mn1          0.000
        Mn2          0.000
        Au           0.000


     Simplified LDA+U calculation (l_max = 2) with parameters (eV):
     atomic species    L          U    alpha       J0     beta
        Mn1            2     3.1200   0.0000   0.0000   0.0000
        Mn2            2     3.1200   0.0000   0.0000   0.0000



     16 Sym. Ops., with inversion, found



   Cartesian axes

     site n.     atom                  positions (alat units)
         1           Mn1 tau(   1) = (   0.0000000   0.0000000   0.0000000  )
         2           Mn1 tau(   2) = (   0.0000000   0.3333300   0.0000000  )
         3           Mn1 tau(   3) = (   0.0000000   0.6666700   0.0000000  )
         4           Mn1 tau(   4) = (   0.3333300   0.0000000   0.0000000  )
         5           Mn1 tau(   5) = (   0.3333300   0.3333300   0.0000000  )
         6           Mn1 tau(   6) = (   0.3333300   0.6666700   0.0000000  )
         7           Mn1 tau(   7) = (   0.6666700   0.0000000   0.0000000  )
         8           Mn1 tau(   8) = (   0.6666700   0.3333300   0.0000000  )
         9           Mn1 tau(   9) = (   0.6666700   0.6666700   0.0000000  )
        10           Mn2 tau(  10) = (   0.1666700   0.1666700   0.4359871  )
        11           Mn2 tau(  11) = (   0.1666700   0.5000000   0.4359871  )
        12           Mn2 tau(  12) = (   0.1666700   0.8333300   0.4359871  )
        13           Mn2 tau(  13) = (   0.5000000   0.1666700   0.4359871  )
        14           Mn2 tau(  14) = (   0.5000000   0.5000000   0.4359871  )
        15           Mn2 tau(  15) = (   0.5000000   0.8333300   0.4359871  )
        16           Mn2 tau(  16) = (   0.8333300   0.1666700   0.4359871  )
        17           Mn2 tau(  17) = (   0.8333300   0.5000000   0.4359871  )
        18           Mn2 tau(  18) = (   0.8333300   0.8333300   0.4359871  )
        19           Au  tau(  19) = (   0.1666700   0.1666700   0.7327374  )
        20           Au  tau(  20) = (   0.1666700   0.5000000   0.7327374  )
        21           Au  tau(  21) = (   0.1666700   0.8333300   0.7327374  )
        22           Au  tau(  22) = (   0.5000000   0.1666700   0.7327374  )
        23           Au  tau(  23) = (   0.5000000   0.5000000   0.7327374  )
        24           Au  tau(  24) = (   0.5000000   0.8333300   0.7327374  )
        25           Au  tau(  25) = (   0.8333300   0.1666700   0.7327374  )
        26           Au  tau(  26) = (   0.8333300   0.5000000   0.7327374  )
        27           Au  tau(  27) = (   0.8333300   0.8333300   0.7327374  )
        28           Au  tau(  28) = (   0.1666700   0.1666700   0.1392369  )
        29           Au  tau(  29) = (   0.1666700   0.5000000   0.1392369  )
        30           Au  tau(  30) = (   0.1666700   0.8333300   0.1392369  )
        31           Au  tau(  31) = (   0.5000000   0.1666700   0.1392369  )
        32           Au  tau(  32) = (   0.5000000   0.5000000   0.1392369  )
        33           Au  tau(  33) = (   0.5000000   0.8333300   0.1392369  )
        34           Au  tau(  34) = (   0.8333300   0.1666700   0.1392369  )
        35           Au  tau(  35) = (   0.8333300   0.5000000   0.1392369  )
        36           Au  tau(  36) = (   0.8333300   0.8333300   0.1392369  )
        37           Au  tau(  37) = (   0.0000000   0.0000000   0.2967503  )
        38           Au  tau(  38) = (   0.0000000   0.3333300   0.2967503  )
        39           Au  tau(  39) = (   0.0000000   0.6666700   0.2967503  )
        40           Au  tau(  40) = (   0.3333300   0.0000000   0.2967503  )
        41           Au  tau(  41) = (   0.3333300   0.3333300   0.2967503  )
        42           Au  tau(  42) = (   0.3333300   0.6666700   0.2967503  )
        43           Au  tau(  43) = (   0.6666700   0.0000000   0.2967503  )
        44           Au  tau(  44) = (   0.6666700   0.3333300   0.2967503  )
        45           Au  tau(  45) = (   0.6666700   0.6666700   0.2967503  )
        46           Au  tau(  46) = (   0.0000000   0.0000000   0.5752240  )
        47           Au  tau(  47) = (   0.0000000   0.3333300   0.5752240  )
        48           Au  tau(  48) = (   0.0000000   0.6666700   0.5752240  )
        49           Au  tau(  49) = (   0.3333300   0.0000000   0.5752240  )
        50           Au  tau(  50) = (   0.3333300   0.3333300   0.5752240  )
        51           Au  tau(  51) = (   0.3333300   0.6666700   0.5752240  )
        52           Au  tau(  52) = (   0.6666700   0.0000000   0.5752240  )
        53           Au  tau(  53) = (   0.6666700   0.3333300   0.5752240  )
        54           Au  tau(  54) = (   0.6666700   0.6666700   0.5752240  )

     number of k points=     6 (tetrahedron method)
                       cart. coord. in units 2pi/alat
        k(    1) = (   0.0000000   0.0000000   0.0000000), wk =   0.1250000
        k(    2) = (   0.0000000   0.0000000  -0.5734114), wk =   0.1250000
        k(    3) = (   0.0000000  -0.5000000   0.0000000), wk =   0.2500000
        k(    4) = (   0.0000000  -0.5000000  -0.5734114), wk =   0.2500000
        k(    5) = (  -0.5000000  -0.5000000   0.0000000), wk =   0.1250000
        k(    6) = (  -0.5000000  -0.5000000  -0.5734114), wk =   0.1250000

     Dense  grid:   839803 G-vectors     FFT dimensions: ( 125, 125, 108)

     Smooth grid:   253559 G-vectors     FFT dimensions: (  90,  90,  72)

     Estimated max dynamical RAM per process >     197.14Mb

     Estimated total allocated dynamical RAM >    9462.80Mb
     Generating pointlists ...
     new r_m :   0.1129 (alat units)  2.1733 (a.u.) for type    1
     new r_m :   0.1129 (alat units)  2.1733 (a.u.) for type    2
     new r_m :   0.1129 (alat units)  2.1733 (a.u.) for type    3

     Check: negative/imaginary core charge=   -0.000006    0.000000

     Initial potential from superposition of free atoms

     starting charge  665.98709, renormalised to  666.00000
     Number of +U iterations with fixed ns =  0
     Starting occupations:
 --- enter write_ns ---
 LDA+U parameters:
U( 1)     =  3.12000000
alpha( 1) =  0.00000000
U( 2)     =  3.12000000
alpha( 2) =  0.00000000
atom    1   Tr[ns(na)] (up, down, total) =   2.50000  2.50000  5.00000
   spin  1
    eigenvalues: 
  0.500  0.500  0.500  0.500  0.500
    eigenvectors:
  1.000  0.000  0.000  0.000  0.000
  0.000  1.000  0.000  0.000  0.000
  0.000  0.000  1.000  0.000  0.000
  0.000  0.000  0.000  1.000  0.000
  0.000  0.000  0.000  0.000  1.000
    occupations:
  0.500  0.000  0.000  0.000  0.000
  0.000  0.500  0.000  0.000  0.000
  0.000  0.000  0.500  0.000  0.000
  0.000  0.000  0.000  0.500  0.000
  0.000  0.000  0.000  0.000  0.500
   spin  2
    eigenvalues: 
  0.500  0.500  0.500  0.500  0.500
    eigenvectors:
  1.000  0.000  0.000  0.000  0.000
  0.000  1.000  0.000  0.000  0.000
  0.000  0.000  1.000  0.000  0.000
  0.000  0.000  0.000  1.000  0.000
  0.000  0.000  0.000  0.000  1.000
    occupations:
  0.500  0.000  0.000  0.000  0.000
  0.000  0.500  0.000  0.000  0.000
  0.000  0.000  0.500  0.000  0.000
  0.000  0.000  0.000  0.500  0.000
  0.000  0.000  0.000  0.000  0.500
atomic mag. moment =     0.000000
atom    2   Tr[ns(na)] (up, down, total) =   2.50000  2.50000  5.00000
   spin  1
    eigenvalues: 
  0.500  0.500  0.500  0.500  0.500
    eigenvectors:
  1.000  0.000  0.000  0.000  0.000
  0.000  1.000  0.000  0.000  0.000
  0.000  0.000  1.000  0.000  0.000
  0.000  0.000  0.000  1.000  0.000
  0.000  0.000  0.000  0.000  1.000
    occupations:
  0.500  0.000  0.000  0.000  0.000
  0.000  0.500  0.000  0.000  0.000
  0.000  0.000  0.500  0.000  0.000
  0.000  0.000  0.000  0.500  0.000
  0.000  0.000  0.000  0.000  0.500
   spin  2
    eigenvalues: 
  0.500  0.500  0.500  0.500  0.500
    eigenvectors:
  1.000  0.000  0.000  0.000  0.000
  0.000  1.000  0.000  0.000  0.000
  0.000  0.000  1.000  0.000  0.000
  0.000  0.000  0.000  1.000  0.000
  0.000  0.000  0.000  0.000  1.000
    occupations:
  0.500  0.000  0.000  0.000  0.000
  0.000  0.500  0.000  0.000  0.000
  0.000  0.000  0.500  0.000  0.000
  0.000  0.000  0.000  0.500  0.000
  0.000  0.000  0.000  0.000  0.500
atomic mag. moment =     0.000000
atom    3   Tr[ns(na)] (up, down, total) =   2.50000  2.50000  5.00000
   spin  1
    eigenvalues: 
  0.500  0.500  0.500  0.500  0.500
    eigenvectors:
  1.000  0.000  0.000  0.000  0.000
  0.000  1.000  0.000  0.000  0.000
  0.000  0.000  1.000  0.000  0.000
  0.000  0.000  0.000  1.000  0.000
  0.000  0.000  0.000  0.000  1.000
    occupations:
  0.500  0.000  0.000  0.000  0.000
  0.000  0.500  0.000  0.000  0.000
  0.000  0.000  0.500  0.000  0.000
  0.000  0.000  0.000  0.500  0.000
  0.000  0.000  0.000  0.000  0.500
   spin  2
    eigenvalues: 
  0.500  0.500  0.500  0.500  0.500
    eigenvectors:
  1.000  0.000  0.000  0.000  0.000
  0.000  1.000  0.000  0.000  0.000
  0.000  0.000  1.000  0.000  0.000
  0.000  0.000  0.000  1.000  0.000
  0.000  0.000  0.000  0.000  1.000
    occupations:
  0.500  0.000  0.000  0.000  0.000
  0.000  0.500  0.000  0.000  0.000
  0.000  0.000  0.500  0.000  0.000
  0.000  0.000  0.000  0.500  0.000
  0.000  0.000  0.000  0.000  0.500
atomic mag. moment =     0.000000
atom    4   Tr[ns(na)] (up, down, total) =   2.50000  2.50000  5.00000
   spin  1
    eigenvalues: 
  0.500  0.500  0.500  0.500  0.500
    eigenvectors:
  1.000  0.000  0.000  0.000  0.000
  0.000  1.000  0.000  0.000  0.000
  0.000  0.000  1.000  0.000  0.000
  0.000  0.000  0.000  1.000  0.000
  0.000  0.000  0.000  0.000  1.000
    occupations:
  0.500  0.000  0.000  0.000  0.000
  0.000  0.500  0.000  0.000  0.000
  0.000  0.000  0.500  0.000  0.000
  0.000  0.000  0.000  0.500  0.000
  0.000  0.000  0.000  0.000  0.500
   spin  2
    eigenvalues: 
  0.500  0.500  0.500  0.500  0.500
    eigenvectors:
  1.000  0.000  0.000  0.000  0.000
  0.000  1.000  0.000  0.000  0.000
  0.000  0.000  1.000  0.000  0.000
  0.000  0.000  0.000  1.000  0.000
  0.000  0.000  0.000  0.000  1.000
    occupations:
  0.500  0.000  0.000  0.000  0.000
  0.000  0.500  0.000  0.000  0.000
  0.000  0.000  0.500  0.000  0.000
  0.000  0.000  0.000  0.500  0.000
  0.000  0.000  0.000  0.000  0.500
atomic mag. moment =     0.000000
atom    5   Tr[ns(na)] (up, down, total) =   2.50000  2.50000  5.00000
   spin  1
    eigenvalues: 
  0.500  0.500  0.500  0.500  0.500
    eigenvectors:
  1.000  0.000  0.000  0.000  0.000
  0.000  1.000  0.000  0.000  0.000
  0.000  0.000  1.000  0.000  0.000
  0.000  0.000  0.000  1.000  0.000
  0.000  0.000  0.000  0.000  1.000
    occupations:
  0.500  0.000  0.000  0.000  0.000
  0.000  0.500  0.000  0.000  0.000
  0.000  0.000  0.500  0.000  0.000
  0.000  0.000  0.000  0.500  0.000
  0.000  0.000  0.000  0.000  0.500
   spin  2
    eigenvalues: 
  0.500  0.500  0.500  0.500  0.500
    eigenvectors:
  1.000  0.000  0.000  0.000  0.000
  0.000  1.000  0.000  0.000  0.000
  0.000  0.000  1.000  0.000  0.000
  0.000  0.000  0.000  1.000  0.000
  0.000  0.000  0.000  0.000  1.000
    occupations:
  0.500  0.000  0.000  0.000  0.000
  0.000  0.500  0.000  0.000  0.000
  0.000  0.000  0.500  0.000  0.000
  0.000  0.000  0.000  0.500  0.000
  0.000  0.000  0.000  0.000  0.500
atomic mag. moment =     0.000000
atom    6   Tr[ns(na)] (up, down, total) =   2.50000  2.50000  5.00000
   spin  1
    eigenvalues: 
  0.500  0.500  0.500  0.500  0.500
    eigenvectors:
  1.000  0.000  0.000  0.000  0.000
  0.000  1.000  0.000  0.000  0.000
  0.000  0.000  1.000  0.000  0.000
  0.000  0.000  0.000  1.000  0.000
  0.000  0.000  0.000  0.000  1.000
    occupations:
  0.500  0.000  0.000  0.000  0.000
  0.000  0.500  0.000  0.000  0.000
  0.000  0.000  0.500  0.000  0.000
  0.000  0.000  0.000  0.500  0.000
  0.000  0.000  0.000  0.000  0.500
   spin  2
    eigenvalues: 
  0.500  0.500  0.500  0.500  0.500
    eigenvectors:
  1.000  0.000  0.000  0.000  0.000
  0.000  1.000  0.000  0.000  0.000
  0.000  0.000  1.000  0.000  0.000
  0.000  0.000  0.000  1.000  0.000
  0.000  0.000  0.000  0.000  1.000
    occupations:
  0.500  0.000  0.000  0.000  0.000
  0.000  0.500  0.000  0.000  0.000
  0.000  0.000  0.500  0.000  0.000
  0.000  0.000  0.000  0.500  0.000
  0.000  0.000  0.000  0.000  0.500
atomic mag. moment =     0.000000
atom    7   Tr[ns(na)] (up, down, total) =   2.50000  2.50000  5.00000
   spin  1
    eigenvalues: 
  0.500  0.500  0.500  0.500  0.500
    eigenvectors:
  1.000  0.000  0.000  0.000  0.000
  0.000  1.000  0.000  0.000  0.000
  0.000  0.000  1.000  0.000  0.000
  0.000  0.000  0.000  1.000  0.000
  0.000  0.000  0.000  0.000  1.000
    occupations:
  0.500  0.000  0.000  0.000  0.000
  0.000  0.500  0.000  0.000  0.000
  0.000  0.000  0.500  0.000  0.000
  0.000  0.000  0.000  0.500  0.000
  0.000  0.000  0.000  0.000  0.500
   spin  2
    eigenvalues: 
  0.500  0.500  0.500  0.500  0.500
    eigenvectors:
  1.000  0.000  0.000  0.000  0.000
  0.000  1.000  0.000  0.000  0.000
  0.000  0.000  1.000  0.000  0.000
  0.000  0.000  0.000  1.000  0.000
  0.000  0.000  0.000  0.000  1.000
    occupations:
  0.500  0.000  0.000  0.000  0.000
  0.000  0.500  0.000  0.000  0.000
  0.000  0.000  0.500  0.000  0.000
  0.000  0.000  0.000  0.500  0.000
  0.000  0.000  0.000  0.000  0.500
atomic mag. moment =     0.000000
atom    8   Tr[ns(na)] (up, down, total) =   2.50000  2.50000  5.00000
   spin  1
    eigenvalues: 
  0.500  0.500  0.500  0.500  0.500
    eigenvectors:
  1.000  0.000  0.000  0.000  0.000
  0.000  1.000  0.000  0.000  0.000
  0.000  0.000  1.000  0.000  0.000
  0.000  0.000  0.000  1.000  0.000
  0.000  0.000  0.000  0.000  1.000
    occupations:
  0.500  0.000  0.000  0.000  0.000
  0.000  0.500  0.000  0.000  0.000
  0.000  0.000  0.500  0.000  0.000
  0.000  0.000  0.000  0.500  0.000
  0.000  0.000  0.000  0.000  0.500
   spin  2
    eigenvalues: 
  0.500  0.500  0.500  0.500  0.500
    eigenvectors:
  1.000  0.000  0.000  0.000  0.000
  0.000  1.000  0.000  0.000  0.000
  0.000  0.000  1.000  0.000  0.000
  0.000  0.000  0.000  1.000  0.000
  0.000  0.000  0.000  0.000  1.000
    occupations:
  0.500  0.000  0.000  0.000  0.000
  0.000  0.500  0.000  0.000  0.000
  0.000  0.000  0.500  0.000  0.000
  0.000  0.000  0.000  0.500  0.000
  0.000  0.000  0.000  0.000  0.500
atomic mag. moment =     0.000000
atom    9   Tr[ns(na)] (up, down, total) =   2.50000  2.50000  5.00000
   spin  1
    eigenvalues: 
  0.500  0.500  0.500  0.500  0.500
    eigenvectors:
  1.000  0.000  0.000  0.000  0.000
  0.000  1.000  0.000  0.000  0.000
  0.000  0.000  1.000  0.000  0.000
  0.000  0.000  0.000  1.000  0.000
  0.000  0.000  0.000  0.000  1.000
    occupations:
  0.500  0.000  0.000  0.000  0.000
  0.000  0.500  0.000  0.000  0.000
  0.000  0.000  0.500  0.000  0.000
  0.000  0.000  0.000  0.500  0.000
  0.000  0.000  0.000  0.000  0.500
   spin  2
    eigenvalues: 
  0.500  0.500  0.500  0.500  0.500
    eigenvectors:
  1.000  0.000  0.000  0.000  0.000
  0.000  1.000  0.000  0.000  0.000
  0.000  0.000  1.000  0.000  0.000
  0.000  0.000  0.000  1.000  0.000
  0.000  0.000  0.000  0.000  1.000
    occupations:
  0.500  0.000  0.000  0.000  0.000
  0.000  0.500  0.000  0.000  0.000
  0.000  0.000  0.500  0.000  0.000
  0.000  0.000  0.000  0.500  0.000
  0.000  0.000  0.000  0.000  0.500
atomic mag. moment =     0.000000
atom   10   Tr[ns(na)] (up, down, total) =   2.50000  2.50000  5.00000
   spin  1
    eigenvalues: 
  0.500  0.500  0.500  0.500  0.500
    eigenvectors:
  1.000  0.000  0.000  0.000  0.000
  0.000  1.000  0.000  0.000  0.000
  0.000  0.000  1.000  0.000  0.000
  0.000  0.000  0.000  1.000  0.000
  0.000  0.000  0.000  0.000  1.000
    occupations:
  0.500  0.000  0.000  0.000  0.000
  0.000  0.500  0.000  0.000  0.000
  0.000  0.000  0.500  0.000  0.000
  0.000  0.000  0.000  0.500  0.000
  0.000  0.000  0.000  0.000  0.500
   spin  2
    eigenvalues: 
  0.500  0.500  0.500  0.500  0.500
    eigenvectors:
  1.000  0.000  0.000  0.000  0.000
  0.000  1.000  0.000  0.000  0.000
  0.000  0.000  1.000  0.000  0.000
  0.000  0.000  0.000  1.000  0.000
  0.000  0.000  0.000  0.000  1.000
    occupations:
  0.500  0.000  0.000  0.000  0.000
  0.000  0.500  0.000  0.000  0.000
  0.000  0.000  0.500  0.000  0.000
  0.000  0.000  0.000  0.500  0.000
  0.000  0.000  0.000  0.000  0.500
atomic mag. moment =     0.000000
atom   11   Tr[ns(na)] (up, down, total) =   2.50000  2.50000  5.00000
   spin  1
    eigenvalues: 
  0.500  0.500  0.500  0.500  0.500
    eigenvectors:
  1.000  0.000  0.000  0.000  0.000
  0.000  1.000  0.000  0.000  0.000
  0.000  0.000  1.000  0.000  0.000
  0.000  0.000  0.000  1.000  0.000
  0.000  0.000  0.000  0.000  1.000
    occupations:
  0.500  0.000  0.000  0.000  0.000
  0.000  0.500  0.000  0.000  0.000
  0.000  0.000  0.500  0.000  0.000
  0.000  0.000  0.000  0.500  0.000
  0.000  0.000  0.000  0.000  0.500
   spin  2
    eigenvalues: 
  0.500  0.500  0.500  0.500  0.500
    eigenvectors:
  1.000  0.000  0.000  0.000  0.000
  0.000  1.000  0.000  0.000  0.000
  0.000  0.000  1.000  0.000  0.000
  0.000  0.000  0.000  1.000  0.000
  0.000  0.000  0.000  0.000  1.000
    occupations:
  0.500  0.000  0.000  0.000  0.000
  0.000  0.500  0.000  0.000  0.000
  0.000  0.000  0.500  0.000  0.000
  0.000  0.000  0.000  0.500  0.000
  0.000  0.000  0.000  0.000  0.500
atomic mag. moment =     0.000000
atom   12   Tr[ns(na)] (up, down, total) =   2.50000  2.50000  5.00000
   spin  1
    eigenvalues: 
  0.500  0.500  0.500  0.500  0.500
    eigenvectors:
  1.000  0.000  0.000  0.000  0.000
  0.000  1.000  0.000  0.000  0.000
  0.000  0.000  1.000  0.000  0.000
  0.000  0.000  0.000  1.000  0.000
  0.000  0.000  0.000  0.000  1.000
    occupations:
  0.500  0.000  0.000  0.000  0.000
  0.000  0.500  0.000  0.000  0.000
  0.000  0.000  0.500  0.000  0.000
  0.000  0.000  0.000  0.500  0.000
  0.000  0.000  0.000  0.000  0.500
   spin  2
    eigenvalues: 
  0.500  0.500  0.500  0.500  0.500
    eigenvectors:
  1.000  0.000  0.000  0.000  0.000
  0.000  1.000  0.000  0.000  0.000
  0.000  0.000  1.000  0.000  0.000
  0.000  0.000  0.000  1.000  0.000
  0.000  0.000  0.000  0.000  1.000
    occupations:
  0.500  0.000  0.000  0.000  0.000
  0.000  0.500  0.000  0.000  0.000
  0.000  0.000  0.500  0.000  0.000
  0.000  0.000  0.000  0.500  0.000
  0.000  0.000  0.000  0.000  0.500
atomic mag. moment =     0.000000
atom   13   Tr[ns(na)] (up, down, total) =   2.50000  2.50000  5.00000
   spin  1
    eigenvalues: 
  0.500  0.500  0.500  0.500  0.500
    eigenvectors:
  1.000  0.000  0.000  0.000  0.000
  0.000  1.000  0.000  0.000  0.000
  0.000  0.000  1.000  0.000  0.000
  0.000  0.000  0.000  1.000  0.000
  0.000  0.000  0.000  0.000  1.000
    occupations:
  0.500  0.000  0.000  0.000  0.000
  0.000  0.500  0.000  0.000  0.000
  0.000  0.000  0.500  0.000  0.000
  0.000  0.000  0.000  0.500  0.000
  0.000  0.000  0.000  0.000  0.500
   spin  2
    eigenvalues: 
  0.500  0.500  0.500  0.500  0.500
    eigenvectors:
  1.000  0.000  0.000  0.000  0.000
  0.000  1.000  0.000  0.000  0.000
  0.000  0.000  1.000  0.000  0.000
  0.000  0.000  0.000  1.000  0.000
  0.000  0.000  0.000  0.000  1.000
    occupations:
  0.500  0.000  0.000  0.000  0.000
  0.000  0.500  0.000  0.000  0.000
  0.000  0.000  0.500  0.000  0.000
  0.000  0.000  0.000  0.500  0.000
  0.000  0.000  0.000  0.000  0.500
atomic mag. moment =     0.000000
atom   14   Tr[ns(na)] (up, down, total) =   2.50000  2.50000  5.00000
   spin  1
    eigenvalues: 
  0.500  0.500  0.500  0.500  0.500
    eigenvectors:
  1.000  0.000  0.000  0.000  0.000
  0.000  1.000  0.000  0.000  0.000
  0.000  0.000  1.000  0.000  0.000
  0.000  0.000  0.000  1.000  0.000
  0.000  0.000  0.000  0.000  1.000
    occupations:
  0.500  0.000  0.000  0.000  0.000
  0.000  0.500  0.000  0.000  0.000
  0.000  0.000  0.500  0.000  0.000
  0.000  0.000  0.000  0.500  0.000
  0.000  0.000  0.000  0.000  0.500
   spin  2
    eigenvalues: 
  0.500  0.500  0.500  0.500  0.500
    eigenvectors:
  1.000  0.000  0.000  0.000  0.000
  0.000  1.000  0.000  0.000  0.000
  0.000  0.000  1.000  0.000  0.000
  0.000  0.000  0.000  1.000  0.000
  0.000  0.000  0.000  0.000  1.000
    occupations:
  0.500  0.000  0.000  0.000  0.000
  0.000  0.500  0.000  0.000  0.000
  0.000  0.000  0.500  0.000  0.000
  0.000  0.000  0.000  0.500  0.000
  0.000  0.000  0.000  0.000  0.500
atomic mag. moment =     0.000000
atom   15   Tr[ns(na)] (up, down, total) =   2.50000  2.50000  5.00000
   spin  1
    eigenvalues: 
  0.500  0.500  0.500  0.500  0.500
    eigenvectors:
  1.000  0.000  0.000  0.000  0.000
  0.000  1.000  0.000  0.000  0.000
  0.000  0.000  1.000  0.000  0.000
  0.000  0.000  0.000  1.000  0.000
  0.000  0.000  0.000  0.000  1.000
    occupations:
  0.500  0.000  0.000  0.000  0.000
  0.000  0.500  0.000  0.000  0.000
  0.000  0.000  0.500  0.000  0.000
  0.000  0.000  0.000  0.500  0.000
  0.000  0.000  0.000  0.000  0.500
   spin  2
    eigenvalues: 
  0.500  0.500  0.500  0.500  0.500
    eigenvectors:
  1.000  0.000  0.000  0.000  0.000
  0.000  1.000  0.000  0.000  0.000
  0.000  0.000  1.000  0.000  0.000
  0.000  0.000  0.000  1.000  0.000
  0.000  0.000  0.000  0.000  1.000
    occupations:
  0.500  0.000  0.000  0.000  0.000
  0.000  0.500  0.000  0.000  0.000
  0.000  0.000  0.500  0.000  0.000
  0.000  0.000  0.000  0.500  0.000
  0.000  0.000  0.000  0.000  0.500
atomic mag. moment =     0.000000
atom   16   Tr[ns(na)] (up, down, total) =   2.50000  2.50000  5.00000
   spin  1
    eigenvalues: 
  0.500  0.500  0.500  0.500  0.500
    eigenvectors:
  1.000  0.000  0.000  0.000  0.000
  0.000  1.000  0.000  0.000  0.000
  0.000  0.000  1.000  0.000  0.000
  0.000  0.000  0.000  1.000  0.000
  0.000  0.000  0.000  0.000  1.000
    occupations:
  0.500  0.000  0.000  0.000  0.000
  0.000  0.500  0.000  0.000  0.000
  0.000  0.000  0.500  0.000  0.000
  0.000  0.000  0.000  0.500  0.000
  0.000  0.000  0.000  0.000  0.500
   spin  2
    eigenvalues: 
  0.500  0.500  0.500  0.500  0.500
    eigenvectors:
  1.000  0.000  0.000  0.000  0.000
  0.000  1.000  0.000  0.000  0.000
  0.000  0.000  1.000  0.000  0.000
  0.000  0.000  0.000  1.000  0.000
  0.000  0.000  0.000  0.000  1.000
    occupations:
  0.500  0.000  0.000  0.000  0.000
  0.000  0.500  0.000  0.000  0.000
  0.000  0.000  0.500  0.000  0.000
  0.000  0.000  0.000  0.500  0.000
  0.000  0.000  0.000  0.000  0.500
atomic mag. moment =     0.000000
atom   17   Tr[ns(na)] (up, down, total) =   2.50000  2.50000  5.00000
   spin  1
    eigenvalues: 
  0.500  0.500  0.500  0.500  0.500
    eigenvectors:
  1.000  0.000  0.000  0.000  0.000
  0.000  1.000  0.000  0.000  0.000
  0.000  0.000  1.000  0.000  0.000
  0.000  0.000  0.000  1.000  0.000
  0.000  0.000  0.000  0.000  1.000
    occupations:
  0.500  0.000  0.000  0.000  0.000
  0.000  0.500  0.000  0.000  0.000
  0.000  0.000  0.500  0.000  0.000
  0.000  0.000  0.000  0.500  0.000
  0.000  0.000  0.000  0.000  0.500
   spin  2
    eigenvalues: 
  0.500  0.500  0.500  0.500  0.500
    eigenvectors:
  1.000  0.000  0.000  0.000  0.000
  0.000  1.000  0.000  0.000  0.000
  0.000  0.000  1.000  0.000  0.000
  0.000  0.000  0.000  1.000  0.000
  0.000  0.000  0.000  0.000  1.000
    occupations:
  0.500  0.000  0.000  0.000  0.000
  0.000  0.500  0.000  0.000  0.000
  0.000  0.000  0.500  0.000  0.000
  0.000  0.000  0.000  0.500  0.000
  0.000  0.000  0.000  0.000  0.500
atomic mag. moment =     0.000000
atom   18   Tr[ns(na)] (up, down, total) =   2.50000  2.50000  5.00000
   spin  1
    eigenvalues: 
  0.500  0.500  0.500  0.500  0.500
    eigenvectors:
  1.000  0.000  0.000  0.000  0.000
  0.000  1.000  0.000  0.000  0.000
  0.000  0.000  1.000  0.000  0.000
  0.000  0.000  0.000  1.000  0.000
  0.000  0.000  0.000  0.000  1.000
    occupations:
  0.500  0.000  0.000  0.000  0.000
  0.000  0.500  0.000  0.000  0.000
  0.000  0.000  0.500  0.000  0.000
  0.000  0.000  0.000  0.500  0.000
  0.000  0.000  0.000  0.000  0.500
   spin  2
    eigenvalues: 
  0.500  0.500  0.500  0.500  0.500
    eigenvectors:
  1.000  0.000  0.000  0.000  0.000
  0.000  1.000  0.000  0.000  0.000
  0.000  0.000  1.000  0.000  0.000
  0.000  0.000  0.000  1.000  0.000
  0.000  0.000  0.000  0.000  1.000
    occupations:
  0.500  0.000  0.000  0.000  0.000
  0.000  0.500  0.000  0.000  0.000
  0.000  0.000  0.500  0.000  0.000
  0.000  0.000  0.000  0.500  0.000
  0.000  0.000  0.000  0.000  0.500
atomic mag. moment =     0.000000
N of occupied +U levels =   90.000000
 --- exit write_ns ---
 Atomic wfc used for LDA+U Projector are NOT orthogonalized
     Starting wfc are  504 randomized atomic wfcs
     Checking if some PAW data can be deallocated... 

     total cpu time spent up to now is       28.4 secs

     per-process dynamical memory:   228.1 Mb

     Self-consistent Calculation

     iteration #  1     ecut=    45.00 Ry     beta=0.10
     Davidson diagonalization with overlap
     ethr =  1.00E-02,  avg # of iterations =  2.3
 --- enter write_ns ---
 LDA+U parameters:
U( 1)     =  3.12000000
alpha( 1) =  0.00000000
U( 2)     =  3.12000000
alpha( 2) =  0.00000000
atom    1   Tr[ns(na)] (up, down, total) =   4.30839  4.31518  8.62357
   spin  1
    eigenvalues: 
  0.799  0.822  0.822  0.882  0.983
    eigenvectors:
  0.000  0.000  0.000  1.000  0.000
  0.000  0.263  0.737  0.000  0.000
  0.000  0.737  0.263  0.000  0.000
  0.000  0.000  0.000  0.000  1.000
  1.000  0.000  0.000  0.000  0.000
    occupations:
  0.882 -0.000 -0.000  0.000  0.000
 -0.000  0.822 -0.000  0.000  0.000
 -0.000 -0.000  0.822  0.000  0.000
  0.000  0.000  0.000  0.983 -0.000
  0.000  0.000  0.000 -0.000  0.799
   spin  2
    eigenvalues: 
  0.801  0.822  0.822  0.885  0.986
    eigenvectors:
  0.000  0.000  0.000  1.000  0.000
  0.000  0.269  0.731  0.000  0.000
  0.000  0.731  0.269  0.000  0.000
  0.000  0.000  0.000  0.000  1.000
  1.000  0.000  0.000  0.000  0.000
    occupations:
  0.885 -0.000 -0.000  0.000  0.000
 -0.000  0.822 -0.000  0.000  0.000
 -0.000 -0.000  0.822  0.000  0.000
  0.000  0.000  0.000  0.986 -0.000
  0.000  0.000  0.000 -0.000  0.801
atomic mag. moment =    -0.006797
atom    2   Tr[ns(na)] (up, down, total) =   4.33080  4.33206  8.66286
   spin  1
    eigenvalues: 
  0.804  0.827  0.828  0.886  0.986
    eigenvectors:
  0.000  0.000  0.000  1.000  0.000
  0.000  1.000  0.000  0.000  0.000
  0.000  0.000  1.000  0.000  0.000
  0.000  0.000  0.000  0.000  1.000
  1.000  0.000  0.000  0.000  0.000
    occupations:
  0.886 -0.000 -0.000 -0.001  0.000
 -0.000  0.827 -0.000  0.000  0.000
 -0.000 -0.000  0.828  0.000  0.000
 -0.001  0.000  0.000  0.986 -0.000
  0.000  0.000  0.000 -0.000  0.804
   spin  2
    eigenvalues: 
  0.806  0.824  0.827  0.888  0.987
    eigenvectors:
  0.000  0.000  0.000  1.000  0.000
  0.000  0.000  1.000  0.000  0.000
  0.000  1.000  0.000  0.000  0.000
  0.000  0.000  0.000  0.000  1.000
  1.000  0.000  0.000  0.000  0.000
    occupations:
  0.888 -0.000 -0.000 -0.000  0.000
 -0.000  0.827 -0.000  0.000  0.000
 -0.000 -0.000  0.824  0.000  0.000
 -0.000  0.000  0.000  0.987 -0.000
  0.000  0.000  0.000 -0.000  0.806
atomic mag. moment =    -0.001259
atom    3   Tr[ns(na)] (up, down, total) =   4.33080  4.33206  8.66286
   spin  1
    eigenvalues: 
  0.804  0.827  0.828  0.886  0.986
    eigenvectors:
  0.000  0.000  0.000  1.000  0.000
  0.000  1.000  0.000  0.000  0.000
  0.000  0.000  1.000  0.000  0.000
  0.000  0.000  0.000  0.000  1.000
  1.000  0.000  0.000  0.000  0.000
    occupations:
  0.886 -0.000 -0.000 -0.001  0.000
 -0.000  0.827 -0.000  0.000  0.000
 -0.000 -0.000  0.828  0.000  0.000
 -0.001  0.000  0.000  0.986 -0.000
  0.000  0.000  0.000 -0.000  0.804
   spin  2
    eigenvalues: 
  0.806  0.824  0.827  0.888  0.987
    eigenvectors:
  0.000  0.000  0.000  1.000  0.000
  0.000  0.000  1.000  0.000  0.000
  0.000  1.000  0.000  0.000  0.000
  0.000  0.000  0.000  0.000  1.000
  1.000  0.000  0.000  0.000  0.000
    occupations:
  0.888 -0.000 -0.000 -0.000  0.000
 -0.000  0.827 -0.000  0.000  0.000
 -0.000 -0.000  0.824  0.000  0.000
 -0.000  0.000  0.000  0.987 -0.000
  0.000  0.000  0.000 -0.000  0.806
atomic mag. moment =    -0.001259
atom    4   Tr[ns(na)] (up, down, total) =   4.33080  4.33206  8.66286
   spin  1
    eigenvalues: 
  0.804  0.827  0.828  0.886  0.986
    eigenvectors:
  0.000  0.000  0.000  1.000  0.000
  0.000  0.000  1.000  0.000  0.000
  0.000  1.000  0.000  0.000  0.000
  0.000  0.000  0.000  0.000  1.000
  1.000  0.000  0.000  0.000  0.000
    occupations:
  0.886 -0.000 -0.000  0.001  0.000
 -0.000  0.828 -0.000  0.000  0.000
 -0.000 -0.000  0.827  0.000  0.000
  0.001  0.000  0.000  0.986 -0.000
  0.000  0.000  0.000 -0.000  0.804
   spin  2
    eigenvalues: 
  0.806  0.824  0.827  0.888  0.987
    eigenvectors:
  0.000  0.000  0.000  1.000  0.000
  0.000  1.000  0.000  0.000  0.000
  0.000  0.000  1.000  0.000  0.000
  0.000  0.000  0.000  0.000  1.000
  1.000  0.000  0.000  0.000  0.000
    occupations:
  0.888 -0.000 -0.000  0.000  0.000
 -0.000  0.824 -0.000  0.000  0.000
 -0.000 -0.000  0.827  0.000  0.000
  0.000  0.000  0.000  0.987 -0.000
  0.000  0.000  0.000 -0.000  0.806
atomic mag. moment =    -0.001259
atom    5   Tr[ns(na)] (up, down, total) =   4.32998  4.33189  8.66187
   spin  1
    eigenvalues: 
  0.804  0.826  0.827  0.887  0.986
    eigenvectors:
  0.000  0.000  0.000  1.000  0.000
  0.000  0.500  0.500  0.000  0.000
  0.000  0.500  0.500  0.000  0.000
  0.000  0.000  0.000  0.000  1.000
  1.000  0.000  0.000  0.000  0.000
    occupations:
  0.887 -0.000 -0.000  0.000  0.001
 -0.000  0.827  0.000  0.000  0.000
 -0.000  0.000  0.827  0.000  0.000
  0.000  0.000  0.000  0.986 -0.000
  0.001  0.000  0.000 -0.000  0.804
   spin  2
    eigenvalues: 
  0.805  0.827  0.828  0.887  0.986
    eigenvectors:
  0.000  0.000  0.000  1.000  0.000
  0.000  0.500  0.500  0.000  0.000
  0.000  0.500  0.500  0.000  0.000
  0.000  0.000  0.000  0.000  1.000
  1.000  0.000  0.000  0.000  0.000
    occupations:
  0.887 -0.000 -0.000  0.000 -0.001
 -0.000  0.827  0.000  0.000  0.000
 -0.000  0.000  0.827  0.000  0.000
  0.000  0.000  0.000  0.986 -0.000
 -0.001  0.000  0.000 -0.000  0.805
atomic mag. moment =    -0.001903
atom    6   Tr[ns(na)] (up, down, total) =   4.32998  4.33189  8.66187
   spin  1
    eigenvalues: 
  0.804  0.826  0.827  0.887  0.986
    eigenvectors:
  0.000  0.000  0.000  1.000  0.000
  0.000  0.500  0.500  0.000  0.000
  0.000  0.500  0.500  0.000  0.000
  0.000  0.000  0.000  0.000  1.000
  1.000  0.000  0.000  0.000  0.000
    occupations:
  0.887 -0.000 -0.000  0.000 -0.001
 -0.000  0.827 -0.000  0.000  0.000
 -0.000 -0.000  0.827  0.000  0.000
  0.000  0.000  0.000  0.986 -0.000
 -0.001  0.000  0.000 -0.000  0.804
   spin  2
    eigenvalues: 
  0.805  0.827  0.828  0.887  0.986
    eigenvectors:
  0.000  0.000  0.000  1.000  0.000
  0.000  0.500  0.500  0.000  0.000
  0.000  0.500  0.500  0.000  0.000
  0.000  0.000  0.000  0.000  1.000
  1.000  0.000  0.000  0.000  0.000
    occupations:
  0.887 -0.000 -0.000  0.000  0.001
 -0.000  0.827 -0.000  0.000  0.000
 -0.000 -0.000  0.827  0.000  0.000
  0.000  0.000  0.000  0.986 -0.000
  0.001  0.000  0.000 -0.000  0.805
atomic mag. moment =    -0.001903
atom    7   Tr[ns(na)] (up, down, total) =   4.33080  4.33206  8.66286
   spin  1
    eigenvalues: 
  0.804  0.827  0.828  0.886  0.986
    eigenvectors:
  0.000  0.000  0.000  1.000  0.000
  0.000  0.000  1.000  0.000  0.000
  0.000  1.000  0.000  0.000  0.000
  0.000  0.000  0.000  0.000  1.000
  1.000  0.000  0.000  0.000  0.000
    occupations:
  0.886 -0.000 -0.000  0.001  0.000
 -0.000  0.828 -0.000  0.000  0.000
 -0.000 -0.000  0.827  0.000  0.000
  0.001  0.000  0.000  0.986 -0.000
  0.000  0.000  0.000 -0.000  0.804
   spin  2
    eigenvalues: 
  0.806  0.824  0.827  0.888  0.987
    eigenvectors:
  0.000  0.000  0.000  1.000  0.000
  0.000  1.000  0.000  0.000  0.000
  0.000  0.000  1.000  0.000  0.000
  0.000  0.000  0.000  0.000  1.000
  1.000  0.000  0.000  0.000  0.000
    occupations:
  0.888 -0.000 -0.000  0.000  0.000
 -0.000  0.824 -0.000  0.000  0.000
 -0.000 -0.000  0.827  0.000  0.000
  0.000  0.000  0.000  0.987 -0.000
  0.000  0.000  0.000 -0.000  0.806
atomic mag. moment =    -0.001259
atom    8   Tr[ns(na)] (up, down, total) =   4.32998  4.33189  8.66187
   spin  1
    eigenvalues: 
  0.804  0.826  0.827  0.887  0.986
    eigenvectors:
  0.000  0.000  0.000  1.000  0.000
  0.000  0.500  0.500  0.000  0.000
  0.000  0.500  0.500  0.000  0.000
  0.000  0.000  0.000  0.000  1.000
  1.000  0.000  0.000  0.000  0.000
    occupations:
  0.887 -0.000 -0.000  0.000 -0.001
 -0.000  0.827 -0.000  0.000  0.000
 -0.000 -0.000  0.827  0.000  0.000
  0.000  0.000  0.000  0.986 -0.000
 -0.001  0.000  0.000 -0.000  0.804
   spin  2
    eigenvalues: 
  0.805  0.827  0.828  0.887  0.986
    eigenvectors:
  0.000  0.000  0.000  1.000  0.000
  0.000  0.500  0.500  0.000  0.000
  0.000  0.500  0.500  0.000  0.000
  0.000  0.000  0.000  0.000  1.000
  1.000  0.000  0.000  0.000  0.000
    occupations:
  0.887 -0.000 -0.000  0.000  0.001
 -0.000  0.827 -0.000  0.000  0.000
 -0.000 -0.000  0.827  0.000  0.000
  0.000  0.000  0.000  0.986 -0.000
  0.001  0.000  0.000 -0.000  0.805
atomic mag. moment =    -0.001903
atom    9   Tr[ns(na)] (up, down, total) =   4.32998  4.33189  8.66187
   spin  1
    eigenvalues: 
  0.804  0.826  0.827  0.887  0.986
    eigenvectors:
  0.000  0.000  0.000  1.000  0.000
  0.000  0.500  0.500  0.000  0.000
  0.000  0.500  0.500  0.000  0.000
  0.000  0.000  0.000  0.000  1.000
  1.000  0.000  0.000  0.000  0.000
    occupations:
  0.887 -0.000 -0.000  0.000  0.001
 -0.000  0.827  0.000  0.000  0.000
 -0.000  0.000  0.827  0.000  0.000
  0.000  0.000  0.000  0.986 -0.000
  0.001  0.000  0.000 -0.000  0.804
   spin  2
    eigenvalues: 
  0.805  0.827  0.828  0.887  0.986
    eigenvectors:
  0.000  0.000  0.000  1.000  0.000
  0.000  0.500  0.500  0.000  0.000
  0.000  0.500  0.500  0.000  0.000
  0.000  0.000  0.000  0.000  1.000
  1.000  0.000  0.000  0.000  0.000
    occupations:
  0.887 -0.000 -0.000  0.000 -0.001
 -0.000  0.827  0.000  0.000  0.000
 -0.000  0.000  0.827  0.000  0.000
  0.000  0.000  0.000  0.986 -0.000
 -0.001  0.000  0.000 -0.000  0.805
atomic mag. moment =    -0.001903
atom   10   Tr[ns(na)] (up, down, total) =   4.32562  4.32686  8.65248
   spin  1
    eigenvalues: 
  0.807  0.825  0.826  0.884  0.985
    eigenvectors:
  0.000  0.000  0.000  1.000  0.000
  0.000  0.500  0.500  0.000  0.000
  0.000  0.500  0.500  0.000  0.000
  0.000  0.000  0.000  0.000  1.000
  1.000  0.000  0.000  0.000  0.000
    occupations:
  0.884 -0.000 -0.000  0.000 -0.001
 -0.000  0.825  0.000  0.000  0.000
 -0.000  0.000  0.825  0.000  0.000
  0.000  0.000  0.000  0.985 -0.000
 -0.001  0.000  0.000 -0.000  0.807
   spin  2
    eigenvalues: 
  0.806  0.828  0.828  0.881  0.985
    eigenvectors:
  0.000  0.000  0.000  1.000  0.000
  0.000  0.500  0.500  0.000  0.000
  0.000  0.500  0.500  0.000  0.000
  0.000  0.000  0.000  0.000  1.000
  1.000  0.000  0.000  0.000  0.000
    occupations:
  0.881 -0.000 -0.000  0.000 -0.001
 -0.000  0.828  0.000  0.000  0.000
 -0.000  0.000  0.828  0.000  0.000
  0.000  0.000  0.000  0.985 -0.000
 -0.001  0.000  0.000 -0.000  0.806
atomic mag. moment =    -0.001233
atom   11   Tr[ns(na)] (up, down, total) =   4.32403  4.32053  8.64456
   spin  1
    eigenvalues: 
  0.804  0.826  0.827  0.883  0.983
    eigenvectors:
  0.000  0.000  0.000  1.000  0.000
  0.000  1.000  0.000  0.000  0.000
  0.000  0.000  1.000  0.000  0.000
  0.000  0.000  0.000  0.000  1.000
  1.000  0.000  0.000  0.000  0.000
    occupations:
  0.883 -0.000 -0.000  0.000  0.000
 -0.000  0.826 -0.000  0.000  0.000
 -0.000 -0.000  0.827  0.000  0.000
  0.000  0.000  0.000  0.983 -0.000
  0.000  0.000  0.000 -0.000  0.804
   spin  2
    eigenvalues: 
  0.803  0.825  0.826  0.882  0.984
    eigenvectors:
  0.000  0.000  0.000  1.000  0.000
  0.000  1.000  0.000  0.000  0.000
  0.000  0.000  1.000  0.000  0.000
  0.000  0.000  0.000  0.000  1.000
  1.000  0.000  0.000  0.000  0.000
    occupations:
  0.882 -0.000 -0.000 -0.000  0.000
 -0.000  0.825 -0.000  0.000  0.000
 -0.000 -0.000  0.826  0.000  0.000
 -0.000  0.000  0.000  0.984 -0.000
  0.000  0.000  0.000 -0.000  0.803
atomic mag. moment =     0.003499
atom   12   Tr[ns(na)] (up, down, total) =   4.32562  4.32686  8.65248
   spin  1
    eigenvalues: 
  0.807  0.825  0.826  0.884  0.985
    eigenvectors:
  0.000  0.000  0.000  1.000  0.000
  0.000  0.500  0.500  0.000  0.000
  0.000  0.500  0.500  0.000  0.000
  0.000  0.000  0.000  0.000  1.000
  1.000  0.000  0.000  0.000  0.000
    occupations:
  0.884 -0.000 -0.000  0.000  0.001
 -0.000  0.825 -0.000  0.000  0.000
 -0.000 -0.000  0.825  0.000  0.000
  0.000  0.000  0.000  0.985 -0.000
  0.001  0.000  0.000 -0.000  0.807
   spin  2
    eigenvalues: 
  0.806  0.828  0.828  0.881  0.985
    eigenvectors:
  0.000  0.000  0.000  1.000  0.000
  0.000  0.500  0.500  0.000  0.000
  0.000  0.500  0.500  0.000  0.000
  0.000  0.000  0.000  0.000  1.000
  1.000  0.000  0.000  0.000  0.000
    occupations:
  0.881 -0.000 -0.000  0.000  0.001
 -0.000  0.828 -0.000  0.000  0.000
 -0.000 -0.000  0.828  0.000  0.000
  0.000  0.000  0.000  0.985 -0.000
  0.001  0.000  0.000 -0.000  0.806
atomic mag. moment =    -0.001233
atom   13   Tr[ns(na)] (up, down, total) =   4.32403  4.32053  8.64456
   spin  1
    eigenvalues: 
  0.804  0.826  0.827  0.883  0.983
    eigenvectors:
  0.000  0.000  0.000  1.000  0.000
  0.000  0.000  1.000  0.000  0.000
  0.000  1.000  0.000  0.000  0.000
  0.000  0.000  0.000  0.000  1.000
  1.000  0.000  0.000  0.000  0.000
    occupations:
  0.883 -0.000 -0.000 -0.000  0.000
 -0.000  0.827 -0.000  0.000  0.000
 -0.000 -0.000  0.826  0.000  0.000
 -0.000  0.000  0.000  0.983 -0.000
  0.000  0.000  0.000 -0.000  0.804
   spin  2
    eigenvalues: 
  0.803  0.825  0.826  0.882  0.984
    eigenvectors:
  0.000  0.000  0.000  1.000  0.000
  0.000  0.000  1.000  0.000  0.000
  0.000  1.000  0.000  0.000  0.000
  0.000  0.000  0.000  0.000  1.000
  1.000  0.000  0.000  0.000  0.000
    occupations:
  0.882 -0.000 -0.000  0.000  0.000
 -0.000  0.826 -0.000  0.000  0.000
 -0.000 -0.000  0.825  0.000  0.000
  0.000  0.000  0.000  0.984 -0.000
  0.000  0.000  0.000 -0.000  0.803
atomic mag. moment =     0.003499
atom   14   Tr[ns(na)] (up, down, total) =   4.32194  4.32350  8.64545
   spin  1
    eigenvalues: 
  0.805  0.822  0.822  0.886  0.986
    eigenvectors:
  0.000  0.000  0.000  1.000  0.000
  0.000  0.257  0.743  0.000  0.000
  0.000  0.743  0.257  0.000  0.000
  0.000  0.000  0.000  0.000  1.000
  1.000  0.000  0.000  0.000  0.000
    occupations:
  0.886 -0.000 -0.000  0.000  0.000
 -0.000  0.822 -0.000  0.000  0.000
 -0.000 -0.000  0.822  0.000  0.000
  0.000  0.000  0.000  0.986 -0.000
  0.000  0.000  0.000 -0.000  0.805
   spin  2
    eigenvalues: 
  0.806  0.825  0.825  0.883  0.985
    eigenvectors:
  0.000  0.000  0.000  1.000  0.000
  0.000  0.273  0.727  0.000  0.000
  0.000  0.727  0.273  0.000  0.000
  0.000  0.000  0.000  0.000  1.000
  1.000  0.000  0.000  0.000  0.000
    occupations:
  0.883 -0.000 -0.000  0.000  0.000
 -0.000  0.825 -0.000  0.000  0.000
 -0.000 -0.000  0.825  0.000  0.000
  0.000  0.000  0.000  0.985 -0.000
  0.000  0.000  0.000 -0.000  0.806
atomic mag. moment =    -0.001562
atom   15   Tr[ns(na)] (up, down, total) =   4.32403  4.32053  8.64456
   spin  1
    eigenvalues: 
  0.804  0.826  0.827  0.883  0.983
    eigenvectors:
  0.000  0.000  0.000  1.000  0.000
  0.000  0.000  1.000  0.000  0.000
  0.000  1.000  0.000  0.000  0.000
  0.000  0.000  0.000  0.000  1.000
  1.000  0.000  0.000  0.000  0.000
    occupations:
  0.883 -0.000 -0.000 -0.000  0.000
 -0.000  0.827 -0.000  0.000  0.000
 -0.000 -0.000  0.826  0.000  0.000
 -0.000  0.000  0.000  0.983 -0.000
  0.000  0.000  0.000 -0.000  0.804
   spin  2
    eigenvalues: 
  0.803  0.825  0.826  0.882  0.984
    eigenvectors:
  0.000  0.000  0.000  1.000  0.000
  0.000  0.000  1.000  0.000  0.000
  0.000  1.000  0.000  0.000  0.000
  0.000  0.000  0.000  0.000  1.000
  1.000  0.000  0.000  0.000  0.000
    occupations:
  0.882 -0.000 -0.000  0.000  0.000
 -0.000  0.826 -0.000  0.000  0.000
 -0.000 -0.000  0.825  0.000  0.000
  0.000  0.000  0.000  0.984 -0.000
  0.000  0.000  0.000 -0.000  0.803
atomic mag. moment =     0.003499
atom   16   Tr[ns(na)] (up, down, total) =   4.32562  4.32686  8.65248
   spin  1
    eigenvalues: 
  0.807  0.825  0.826  0.884  0.985
    eigenvectors:
  0.000  0.000  0.000  1.000  0.000
  0.000  0.500  0.500  0.000  0.000
  0.000  0.500  0.500  0.000  0.000
  0.000  0.000  0.000  0.000  1.000
  1.000  0.000  0.000  0.000  0.000
    occupations:
  0.884 -0.000 -0.000  0.000  0.001
 -0.000  0.825 -0.000  0.000  0.000
 -0.000 -0.000  0.825  0.000  0.000
  0.000  0.000  0.000  0.985 -0.000
  0.001  0.000  0.000 -0.000  0.807
   spin  2
    eigenvalues: 
  0.806  0.828  0.828  0.881  0.985
    eigenvectors:
  0.000  0.000  0.000  1.000  0.000
  0.000  0.500  0.500  0.000  0.000
  0.000  0.500  0.500  0.000  0.000
  0.000  0.000  0.000  0.000  1.000
  1.000  0.000  0.000  0.000  0.000
    occupations:
  0.881 -0.000 -0.000  0.000  0.001
 -0.000  0.828 -0.000  0.000  0.000
 -0.000 -0.000  0.828  0.000  0.000
  0.000  0.000  0.000  0.985 -0.000
  0.001  0.000  0.000 -0.000  0.806
atomic mag. moment =    -0.001233
atom   17   Tr[ns(na)] (up, down, total) =   4.32403  4.32053  8.64456
   spin  1
    eigenvalues: 
  0.804  0.826  0.827  0.883  0.983
    eigenvectors:
  0.000  0.000  0.000  1.000  0.000
  0.000  1.000  0.000  0.000  0.000
  0.000  0.000  1.000  0.000  0.000
  0.000  0.000  0.000  0.000  1.000
  1.000  0.000  0.000  0.000  0.000
    occupations:
  0.883 -0.000 -0.000  0.000  0.000
 -0.000  0.826 -0.000  0.000  0.000
 -0.000 -0.000  0.827  0.000  0.000
  0.000  0.000  0.000  0.983 -0.000
  0.000  0.000  0.000 -0.000  0.804
   spin  2
    eigenvalues: 
  0.803  0.825  0.826  0.882  0.984
    eigenvectors:
  0.000  0.000  0.000  1.000  0.000
  0.000  1.000  0.000  0.000  0.000
  0.000  0.000  1.000  0.000  0.000
  0.000  0.000  0.000  0.000  1.000
  1.000  0.000  0.000  0.000  0.000
    occupations:
  0.882 -0.000 -0.000 -0.000  0.000
 -0.000  0.825 -0.000  0.000  0.000
 -0.000 -0.000  0.826  0.000  0.000
 -0.000  0.000  0.000  0.984 -0.000
  0.000  0.000  0.000 -0.000  0.803
atomic mag. moment =     0.003499
atom   18   Tr[ns(na)] (up, down, total) =   4.32562  4.32686  8.65248
   spin  1
    eigenvalues: 
  0.807  0.825  0.826  0.884  0.985
    eigenvectors:
  0.000  0.000  0.000  1.000  0.000
  0.000  0.500  0.500  0.000  0.000
  0.000  0.500  0.500  0.000  0.000
  0.000  0.000  0.000  0.000  1.000
  1.000  0.000  0.000  0.000  0.000
    occupations:
  0.884 -0.000 -0.000  0.000 -0.001
 -0.000  0.825  0.000  0.000  0.000
 -0.000  0.000  0.825  0.000  0.000
  0.000  0.000  0.000  0.985 -0.000
 -0.001  0.000  0.000 -0.000  0.807
   spin  2
    eigenvalues: 
  0.806  0.828  0.828  0.881  0.985
    eigenvectors:
  0.000  0.000  0.000  1.000  0.000
  0.000  0.500  0.500  0.000  0.000
  0.000  0.500  0.500  0.000  0.000
  0.000  0.000  0.000  0.000  1.000
  1.000  0.000  0.000  0.000  0.000
    occupations:
  0.881 -0.000 -0.000  0.000 -0.001
 -0.000  0.828  0.000  0.000  0.000
 -0.000  0.000  0.828  0.000  0.000
  0.000  0.000  0.000  0.985 -0.000
 -0.001  0.000  0.000 -0.000  0.806
atomic mag. moment =    -0.001233
N of occupied +U levels =  155.756074
 --- exit write_ns ---

     total cpu time spent up to now is       89.1 secs

     total energy              =  -33045.45536861 Ry
     Harris-Foulkes estimate   =  -33060.54963573 Ry
     estimated scf accuracy    <      98.36292257 Ry

     total magnetization       =     0.00 Bohr mag/cell
     absolute magnetization    =     0.20 Bohr mag/cell

     iteration #  2     ecut=    45.00 Ry     beta=0.10
     Davidson diagonalization with overlap
     ethr =  1.00E-02,  avg # of iterations =  2.0

     total cpu time spent up to now is      144.1 secs

     total energy              =  -33054.58098230 Ry
     Harris-Foulkes estimate   =  -33055.35345143 Ry
     estimated scf accuracy    <       9.58509539 Ry

     total magnetization       =    -0.21 Bohr mag/cell
     absolute magnetization    =     0.51 Bohr mag/cell

     iteration #  3     ecut=    45.00 Ry     beta=0.10
     Davidson diagonalization with overlap
     ethr =  1.44E-03,  avg # of iterations =  2.0

     total cpu time spent up to now is      199.3 secs

     total energy              =  -33054.79959901 Ry
     Harris-Foulkes estimate   =  -33055.02126539 Ry
     estimated scf accuracy    <       6.38668170 Ry

     total magnetization       =     0.02 Bohr mag/cell
     absolute magnetization    =     0.44 Bohr mag/cell

     iteration #  4     ecut=    45.00 Ry     beta=0.10
     Davidson diagonalization with overlap
     ethr =  9.59E-04,  avg # of iterations =  1.0

     total cpu time spent up to now is      244.7 secs

     total energy              =  -33054.77274085 Ry
     Harris-Foulkes estimate   =  -33055.06745368 Ry
     estimated scf accuracy    <       9.59106595 Ry

     total magnetization       =    -0.07 Bohr mag/cell
     absolute magnetization    =     0.39 Bohr mag/cell

     iteration #  5     ecut=    45.00 Ry     beta=0.10
     Davidson diagonalization with overlap
     ethr =  9.59E-04,  avg # of iterations =  2.0

     total cpu time spent up to now is      299.2 secs

     total energy              =  -33054.96133059 Ry
     Harris-Foulkes estimate   =  -33055.45814407 Ry
     estimated scf accuracy    <      25.92593438 Ry

     total magnetization       =     0.16 Bohr mag/cell
     absolute magnetization    =     0.47 Bohr mag/cell

     iteration #  6     ecut=    45.00 Ry     beta=0.10
     Davidson diagonalization with overlap
     ethr =  9.59E-04,  avg # of iterations =  1.0

     total cpu time spent up to now is      345.1 secs

     total energy              =  -33055.24786351 Ry
     Harris-Foulkes estimate   =  -33055.28837132 Ry
     estimated scf accuracy    <       2.85097100 Ry

     total magnetization       =    -0.08 Bohr mag/cell
     absolute magnetization    =     0.87 Bohr mag/cell

     iteration #  7     ecut=    45.00 Ry     beta=0.10
     Davidson diagonalization with overlap
     ethr =  4.28E-04,  avg # of iterations =  1.0

     total cpu time spent up to now is      390.8 secs

     total energy              =  -33055.21588042 Ry
     Harris-Foulkes estimate   =  -33055.28321522 Ry
     estimated scf accuracy    <       2.11113408 Ry

     total magnetization       =     0.01 Bohr mag/cell
     absolute magnetization    =     0.87 Bohr mag/cell

     iteration #  8     ecut=    45.00 Ry     beta=0.10
     Davidson diagonalization with overlap
     ethr =  3.17E-04,  avg # of iterations =  1.5

     total cpu time spent up to now is      440.7 secs

     total energy              =  -33055.51488732 Ry
     Harris-Foulkes estimate   =  -33055.34609086 Ry
     estimated scf accuracy    <       1.08360216 Ry

     total magnetization       =    -0.05 Bohr mag/cell
     absolute magnetization    =     1.72 Bohr mag/cell

     iteration #  9     ecut=    45.00 Ry     beta=0.10
     Davidson diagonalization with overlap
     ethr =  1.63E-04,  avg # of iterations =  2.8

     total cpu time spent up to now is      501.6 secs

     total energy              =  -33055.72798780 Ry
     Harris-Foulkes estimate   =  -33055.61961136 Ry
     estimated scf accuracy    <       4.19954752 Ry

     total magnetization       =    -0.56 Bohr mag/cell
     absolute magnetization    =     2.78 Bohr mag/cell

     iteration # 10     ecut=    45.00 Ry     beta=0.10
     Davidson diagonalization with overlap
     ethr =  1.63E-04,  avg # of iterations =  1.0

     total cpu time spent up to now is      547.1 secs

     total energy              =  -33055.33162900 Ry
     Harris-Foulkes estimate   =  -33055.79352366 Ry
     estimated scf accuracy    <       2.63676938 Ry

     total magnetization       =     0.55 Bohr mag/cell
     absolute magnetization    =     4.14 Bohr mag/cell

     iteration # 11     ecut=    45.00 Ry     beta=0.10
     Davidson diagonalization with overlap
     ethr =  1.63E-04,  avg # of iterations =  2.8

     total cpu time spent up to now is      608.9 secs

     total energy              =  -33055.64454549 Ry
     Harris-Foulkes estimate   =  -33055.56080116 Ry
     estimated scf accuracy    <       2.27932929 Ry

     total magnetization       =    -0.51 Bohr mag/cell
     absolute magnetization    =     3.40 Bohr mag/cell

     iteration # 12     ecut=    45.00 Ry     beta=0.10
     Davidson diagonalization with overlap
     ethr =  1.63E-04,  avg # of iterations =  1.0

     total cpu time spent up to now is      654.5 secs

     total energy              =  -33055.74191017 Ry
     Harris-Foulkes estimate   =  -33055.71607975 Ry
     estimated scf accuracy    <       1.19616526 Ry

     total magnetization       =     0.96 Bohr mag/cell
     absolute magnetization    =     5.97 Bohr mag/cell

     iteration # 13     ecut=    45.00 Ry     beta=0.10
     Davidson diagonalization with overlap
     ethr =  1.63E-04,  avg # of iterations =  1.0

     total cpu time spent up to now is      699.9 secs

     total energy              =  -33055.73572154 Ry
     Harris-Foulkes estimate   =  -33055.76059479 Ry
     estimated scf accuracy    <       0.21299919 Ry

     total magnetization       =     1.04 Bohr mag/cell
     absolute magnetization    =     7.89 Bohr mag/cell

     iteration # 14     ecut=    45.00 Ry     beta=0.10
     Davidson diagonalization with overlap
     ethr =  3.20E-05,  avg # of iterations =  1.0

     total cpu time spent up to now is      745.3 secs

     total energy              =  -33055.74491946 Ry
     Harris-Foulkes estimate   =  -33055.74163185 Ry
     estimated scf accuracy    <       0.21941922 Ry

     total magnetization       =     0.38 Bohr mag/cell
     absolute magnetization    =     6.30 Bohr mag/cell

     iteration # 15     ecut=    45.00 Ry     beta=0.10
     Davidson diagonalization with overlap
     ethr =  3.20E-05,  avg # of iterations =  1.0

     total cpu time spent up to now is      791.2 secs

     total energy              =  -33055.76152765 Ry
     Harris-Foulkes estimate   =  -33055.74641994 Ry
     estimated scf accuracy    <       0.19072197 Ry

     total magnetization       =    -0.03 Bohr mag/cell
     absolute magnetization    =     6.00 Bohr mag/cell

     iteration # 16     ecut=    45.00 Ry     beta=0.10
     Davidson diagonalization with overlap
     ethr =  2.86E-05,  avg # of iterations =  1.0

     total cpu time spent up to now is      836.6 secs

     total energy              =  -33055.76557879 Ry
     Harris-Foulkes estimate   =  -33055.76432964 Ry
     estimated scf accuracy    <       0.24035051 Ry

     total magnetization       =    -1.31 Bohr mag/cell
     absolute magnetization    =     6.48 Bohr mag/cell

     iteration # 17     ecut=    45.00 Ry     beta=0.10
     Davidson diagonalization with overlap
     ethr =  2.86E-05,  avg # of iterations =  1.0

     total cpu time spent up to now is      882.1 secs

     total energy              =  -33055.77735532 Ry
     Harris-Foulkes estimate   =  -33055.76608289 Ry
     estimated scf accuracy    <       0.18539352 Ry

     total magnetization       =    -1.35 Bohr mag/cell
     absolute magnetization    =     6.64 Bohr mag/cell

     iteration # 18     ecut=    45.00 Ry     beta=0.10
     Davidson diagonalization with overlap
     ethr =  2.78E-05,  avg # of iterations =  1.0

     total cpu time spent up to now is      927.4 secs

     total energy              =  -33055.74264852 Ry
     Harris-Foulkes estimate   =  -33055.77804250 Ry
     estimated scf accuracy    <       0.28272374 Ry

     total magnetization       =    -1.16 Bohr mag/cell
     absolute magnetization    =     6.62 Bohr mag/cell

     iteration # 19     ecut=    45.00 Ry     beta=0.10
     Davidson diagonalization with overlap
     ethr =  2.78E-05,  avg # of iterations =  1.0

     total cpu time spent up to now is      972.9 secs

     total energy              =  -33055.77898648 Ry
     Harris-Foulkes estimate   =  -33055.74901305 Ry
     estimated scf accuracy    <       0.27657389 Ry

     total magnetization       =    -0.48 Bohr mag/cell
     absolute magnetization    =     6.03 Bohr mag/cell

     iteration # 20     ecut=    45.00 Ry     beta=0.10
     Davidson diagonalization with overlap
     ethr =  2.78E-05,  avg # of iterations =  1.0

     total cpu time spent up to now is     1018.3 secs

     total energy              =  -33055.79689727 Ry
     Harris-Foulkes estimate   =  -33055.78264685 Ry
     estimated scf accuracy    <       0.16733629 Ry

     total magnetization       =    -0.32 Bohr mag/cell
     absolute magnetization    =     6.52 Bohr mag/cell

     iteration # 21     ecut=    45.00 Ry     beta=0.10
     Davidson diagonalization with overlap
     ethr =  2.51E-05,  avg # of iterations =  1.0

     total cpu time spent up to now is     1063.8 secs

     total energy              =  -33055.80430907 Ry
     Harris-Foulkes estimate   =  -33055.79838847 Ry
     estimated scf accuracy    <       0.17842504 Ry

     total magnetization       =    -0.97 Bohr mag/cell
     absolute magnetization    =     6.86 Bohr mag/cell

     iteration # 22     ecut=    45.00 Ry     beta=0.10
     Davidson diagonalization with overlap
     ethr =  2.51E-05,  avg # of iterations =  1.0

     total cpu time spent up to now is     1109.3 secs

     total energy              =  -33055.80538171 Ry
     Harris-Foulkes estimate   =  -33055.80457064 Ry
     estimated scf accuracy    <       0.18217496 Ry

     total magnetization       =    -0.76 Bohr mag/cell
     absolute magnetization    =     7.09 Bohr mag/cell

     iteration # 23     ecut=    45.00 Ry     beta=0.10
     Davidson diagonalization with overlap
     ethr =  2.51E-05,  avg # of iterations =  1.0

     total cpu time spent up to now is     1154.7 secs

     total energy              =  -33055.81592547 Ry
     Harris-Foulkes estimate   =  -33055.80851507 Ry
     estimated scf accuracy    <       0.20341941 Ry

     total magnetization       =     0.15 Bohr mag/cell
     absolute magnetization    =     7.84 Bohr mag/cell

     iteration # 24     ecut=    45.00 Ry     beta=0.10
     Davidson diagonalization with overlap
     ethr =  2.51E-05,  avg # of iterations =  1.0

     total cpu time spent up to now is     1200.6 secs

     total energy              =  -33055.80896716 Ry
     Harris-Foulkes estimate   =  -33055.81611563 Ry
     estimated scf accuracy    <       0.21747681 Ry

     total magnetization       =    -0.06 Bohr mag/cell
     absolute magnetization    =     8.05 Bohr mag/cell

     iteration # 25     ecut=    45.00 Ry     beta=0.10
     Davidson diagonalization with overlap
     ethr =  2.51E-05,  avg # of iterations =  1.0

     total cpu time spent up to now is     1246.3 secs

     total energy              =  -33055.76492451 Ry
     Harris-Foulkes estimate   =  -33055.80937918 Ry
     estimated scf accuracy    <       0.22854859 Ry

     total magnetization       =     0.25 Bohr mag/cell
     absolute magnetization    =     7.87 Bohr mag/cell

     iteration # 26     ecut=    45.00 Ry     beta=0.10
     Davidson diagonalization with overlap
     ethr =  2.51E-05,  avg # of iterations =  1.5

     total cpu time spent up to now is     1296.3 secs

     total energy              =  -33055.78065350 Ry
     Harris-Foulkes estimate   =  -33055.77337256 Ry
     estimated scf accuracy    <       0.22083206 Ry

     total magnetization       =     2.08 Bohr mag/cell
     absolute magnetization    =     7.01 Bohr mag/cell

     iteration # 27     ecut=    45.00 Ry     beta=0.10
     Davidson diagonalization with overlap
     ethr =  2.51E-05,  avg # of iterations =  1.0

     total cpu time spent up to now is     1341.8 secs

     total energy              =  -33055.79511158 Ry
     Harris-Foulkes estimate   =  -33055.78222370 Ry
     estimated scf accuracy    <       0.19985077 Ry

     total magnetization       =     2.00 Bohr mag/cell
     absolute magnetization    =     7.14 Bohr mag/cell

     iteration # 28     ecut=    45.00 Ry     beta=0.10
     Davidson diagonalization with overlap
     ethr =  2.51E-05,  avg # of iterations =  1.0

     total cpu time spent up to now is     1387.4 secs

     total energy              =  -33055.79052115 Ry
     Harris-Foulkes estimate   =  -33055.80238949 Ry
     estimated scf accuracy    <       0.23038762 Ry

     total magnetization       =     2.17 Bohr mag/cell
     absolute magnetization    =     7.76 Bohr mag/cell

     iteration # 29     ecut=    45.00 Ry     beta=0.10
     Davidson diagonalization with overlap
     ethr =  2.51E-05,  avg # of iterations =  1.0

     total cpu time spent up to now is     1432.9 secs

     total energy              =  -33055.78411170 Ry
     Harris-Foulkes estimate   =  -33055.79184698 Ry
     estimated scf accuracy    <       0.27149788 Ry

     total magnetization       =     2.16 Bohr mag/cell
     absolute magnetization    =     7.23 Bohr mag/cell

     iteration # 30     ecut=    45.00 Ry     beta=0.10
     Davidson diagonalization with overlap
     ethr =  2.51E-05,  avg # of iterations =  1.0

     total cpu time spent up to now is     1478.3 secs

     total energy              =  -33055.76581856 Ry
     Harris-Foulkes estimate   =  -33055.78710109 Ry
     estimated scf accuracy    <       0.22728202 Ry

     total magnetization       =     2.23 Bohr mag/cell
     absolute magnetization    =     7.54 Bohr mag/cell

     iteration # 31     ecut=    45.00 Ry     beta=0.10
     Davidson diagonalization with overlap
     ethr =  2.51E-05,  avg # of iterations =  1.0

     total cpu time spent up to now is     1523.9 secs

     total energy              =  -33055.79143026 Ry
     Harris-Foulkes estimate   =  -33055.77036227 Ry
     estimated scf accuracy    <       0.20621803 Ry

     total magnetization       =     2.36 Bohr mag/cell
     absolute magnetization    =     6.88 Bohr mag/cell

     iteration # 32     ecut=    45.00 Ry     beta=0.10
     Davidson diagonalization with overlap
     ethr =  2.51E-05,  avg # of iterations =  1.0

     total cpu time spent up to now is     1569.4 secs

     total energy              =  -33055.73026240 Ry
     Harris-Foulkes estimate   =  -33055.79500844 Ry
     estimated scf accuracy    <       0.21752492 Ry

     total magnetization       =     2.95 Bohr mag/cell
     absolute magnetization    =     8.29 Bohr mag/cell

     iteration # 33     ecut=    45.00 Ry     beta=0.10
     Davidson diagonalization with overlap
     ethr =  2.51E-05,  avg # of iterations =  1.0

     total cpu time spent up to now is     1615.0 secs

     total energy              =  -33055.74796300 Ry
     Harris-Foulkes estimate   =  -33055.75224033 Ry
     estimated scf accuracy    <       0.18835828 Ry

     total magnetization       =     2.95 Bohr mag/cell
     absolute magnetization    =     6.24 Bohr mag/cell

     iteration # 34     ecut=    45.00 Ry     beta=0.10
     Davidson diagonalization with overlap
     ethr =  2.51E-05,  avg # of iterations =  1.0

     total cpu time spent up to now is     1660.8 secs

     total energy              =  -33055.75534262 Ry
     Harris-Foulkes estimate   =  -33055.75056891 Ry
     estimated scf accuracy    <       0.15479856 Ry

     total magnetization       =     3.65 Bohr mag/cell
     absolute magnetization    =     6.06 Bohr mag/cell

     iteration # 35     ecut=    45.00 Ry     beta=0.10
     Davidson diagonalization with overlap
     ethr =  2.32E-05,  avg # of iterations =  1.6

     total cpu time spent up to now is     1711.3 secs

     total energy              =  -33055.75209842 Ry
     Harris-Foulkes estimate   =  -33055.75566818 Ry
     estimated scf accuracy    <       0.16262080 Ry

     total magnetization       =     3.60 Bohr mag/cell
     absolute magnetization    =     6.48 Bohr mag/cell

     iteration # 36     ecut=    45.00 Ry     beta=0.10
     Davidson diagonalization with overlap
     ethr =  2.32E-05,  avg # of iterations =  1.0

     total cpu time spent up to now is     1756.7 secs

     total energy              =  -33055.75183061 Ry
     Harris-Foulkes estimate   =  -33055.75350495 Ry
     estimated scf accuracy    <       0.15333392 Ry

     total magnetization       =     2.61 Bohr mag/cell
     absolute magnetization    =     6.16 Bohr mag/cell

     iteration # 37     ecut=    45.00 Ry     beta=0.10
     Davidson diagonalization with overlap
     ethr =  2.30E-05,  avg # of iterations =  1.0

     total cpu time spent up to now is     1802.2 secs

     total energy              =  -33055.75757260 Ry
     Harris-Foulkes estimate   =  -33055.75214486 Ry
     estimated scf accuracy    <       0.14629860 Ry

     total magnetization       =     2.98 Bohr mag/cell
     absolute magnetization    =     6.22 Bohr mag/cell

     iteration # 38     ecut=    45.00 Ry     beta=0.10
     Davidson diagonalization with overlap
     ethr =  2.20E-05,  avg # of iterations =  1.0

     total cpu time spent up to now is     1847.6 secs

     total energy              =  -33055.75393424 Ry
     Harris-Foulkes estimate   =  -33055.75752994 Ry
     estimated scf accuracy    <       0.14745721 Ry

     total magnetization       =     2.23 Bohr mag/cell
     absolute magnetization    =     6.19 Bohr mag/cell

     iteration # 39     ecut=    45.00 Ry     beta=0.10
     Davidson diagonalization with overlap
     ethr =  2.20E-05,  avg # of iterations =  1.6

     total cpu time spent up to now is     1898.5 secs

     total energy              =  -33055.76152952 Ry
     Harris-Foulkes estimate   =  -33055.75790484 Ry
     estimated scf accuracy    <       0.31611409 Ry

     total magnetization       =     1.87 Bohr mag/cell
     absolute magnetization    =     6.41 Bohr mag/cell

     iteration # 40     ecut=    45.00 Ry     beta=0.10
     Davidson diagonalization with overlap
     ethr =  2.20E-05,  avg # of iterations =  1.0

     total cpu time spent up to now is     1944.2 secs

     total energy              =  -33055.77567608 Ry
     Harris-Foulkes estimate   =  -33055.76406530 Ry
     estimated scf accuracy    <       0.19554326 Ry

     total magnetization       =     2.07 Bohr mag/cell
     absolute magnetization    =     6.97 Bohr mag/cell

     iteration # 41     ecut=    45.00 Ry     beta=0.10
     Davidson diagonalization with overlap
