
     Program PWSCF v.6.1 (svn rev. 13369) starts on 24Mar2019 at 15:45: 1 

     This program is part of the open-source Quantum ESPRESSO suite
     for quantum simulation of materials; please cite
         "P. Giannozzi et al., J. Phys.:Condens. Matter 21 395502 (2009);
          URL http://www.quantum-espresso.org", 
     in publications or presentations arising from this work. More details at
     http://www.quantum-espresso.org/quote

     Parallel version (MPI), running on     4 processors
     R & G space division:  proc/nbgrp/npool/nimage =       4
     Waiting for input...
     Reading input from standard input

     Current dimensions of program PWSCF are:
     Max number of different atomic species (ntypx) = 10
     Max number of k-points (npk) =  40000
     Max angular momentum in pseudopotentials (lmaxx) =  3
               file Mn.pbe-spn-kjpaw_psl.0.3.1.UPF: wavefunction(s)  3P 3D renormalized
               file Au.pbe-dn-kjpaw_psl.0.1.UPF: wavefunction(s)  6S 6P 5D renormalized

     Subspace diagonalization in iterative solution of the eigenvalue problem:
     a serial algorithm will be used

     warning: symmetry operation #  2 not compatible with FFT grid. 
  -1   0   0
   0  -1   0
   1   1   1
     warning: symmetry operation #  3 not compatible with FFT grid. 
  -1   0   0
   0   1   0
   0  -1  -1
     warning: symmetry operation #  4 not compatible with FFT grid. 
   1   0   0
   0  -1   0
  -1   0  -1
     warning: symmetry operation #  5 not compatible with FFT grid. 
   0   1   0
   1   0   0
  -1  -1  -1
     warning: symmetry operation #  7 not compatible with FFT grid. 
   0  -1   0
   1   0   0
   0   1   1
     warning: symmetry operation #  8 not compatible with FFT grid. 
   0   1   0
  -1   0   0
   1   0   1
     warning: symmetry operation # 10 not compatible with FFT grid. 
   1   0   0
   0   1   0
  -1  -1  -1
     warning: symmetry operation # 11 not compatible with FFT grid. 
   1   0   0
   0  -1   0
   0   1   1
     warning: symmetry operation # 12 not compatible with FFT grid. 
  -1   0   0
   0   1   0
   1   0   1
     warning: symmetry operation # 13 not compatible with FFT grid. 
   0  -1   0
  -1   0   0
   1   1   1
     warning: symmetry operation # 15 not compatible with FFT grid. 
   0   1   0
  -1   0   0
   0  -1  -1
     warning: symmetry operation # 16 not compatible with FFT grid. 
   0  -1   0
   1   0   0
  -1   0  -1

     Parallelization info
     --------------------
     sticks:   dense  smooth     PW     G-vecs:    dense   smooth      PW
     Min         243     144     44                 7360     3408     593
     Max         244     145     45                 7363     3413     599
     Sum         973     577    177                29445    13639    2379



     bravais-lattice index     =            0
     lattice parameter (alat)  =       6.3686  a.u.
     unit-cell volume          =     335.6689 (a.u.)^3
     number of atoms/cell      =            3
     number of atomic types    =            2
     number of electrons       =        37.00
     number of Kohn-Sham states=           23
     kinetic-energy cutoff     =      45.0000  Ry
     charge density cutoff     =     300.0000  Ry
     convergence threshold     =      1.0E-06
     mixing beta               =       0.3000
     number of iterations used =            8  plain     mixing
     Exchange-correlation      =  SLA  PW   PBX  PBC ( 1  4  3  4 0 0)

     celldm(1)=   6.368621  celldm(2)=   0.000000  celldm(3)=   0.000000
     celldm(4)=   0.000000  celldm(5)=   0.000000  celldm(6)=   0.000000

     crystal axes: (cart. coord. in units of alat)
               a(1) = (   1.000000   0.000000   0.000000 )  
               a(2) = (   0.000000   1.000000   0.000000 )  
               a(3) = (  -0.500000  -0.500000   1.299496 )  

     reciprocal axes: (cart. coord. in units 2 pi/alat)
               b(1) = (  1.000000 -0.000000  0.384765 )  
               b(2) = ( -0.000000  1.000000  0.384765 )  
               b(3) = (  0.000000  0.000000  0.769529 )  


     PseudoPot. # 1 for Mn read from file:
     ../../pseudo/Mn.pbe-spn-kjpaw_psl.0.3.1.UPF
     MD5 check sum: 7eef95dd2aae66803482eea66ebeebf1
     Pseudo is Projector augmented-wave + core cor, Zval = 15.0
     Generated using "atomic" code by A. Dal Corso  v.5.0.99 svn rev. 10869
     Shape of augmentation charge: PSQ
     Using radial grid of 1187 points,  6 beta functions with: 
                l(1) =   0
                l(2) =   0
                l(3) =   1
                l(4) =   1
                l(5) =   2
                l(6) =   2
     Q(r) pseudized with 0 coefficients 


     PseudoPot. # 2 for Au read from file:
     ../../pseudo/Au.pbe-dn-kjpaw_psl.0.1.UPF
     MD5 check sum: 5c9b92683623e7ae2ab3f8e525febab6
     Pseudo is Projector augmented-wave + core cor, Zval = 11.0
     Generated using "atomic" code by A. Dal Corso  v.5.0.2 svn rev. 9415
     Shape of augmentation charge: PSQ
     Using radial grid of 1279 points,  6 beta functions with: 
                l(1) =   0
                l(2) =   0
                l(3) =   1
                l(4) =   1
                l(5) =   2
                l(6) =   2
     Q(r) pseudized with 0 coefficients 


     atomic species   valence    mass     pseudopotential
        Mn            15.00     1.00000     Mn( 1.00)
        Au            11.00     1.00000     Au( 1.00)

     Starting magnetic structure 
     atomic species   magnetization
        Mn           1.000
        Au           0.000

      4 Sym. Ops., with inversion, found



   Cartesian axes

     site n.     atom                  positions (alat units)
         1           Mn  tau(   1) = (   0.0000000   0.0000000   0.0000000  )
         2           Au  tau(   2) = (  -0.0000000  -0.0000000   0.8836570  )
         3           Au  tau(   3) = (   0.4999999   0.4999999   0.4158386  )

     number of k points=   150 (tetrahedron method)

     Number of k-points >= 100: set verbosity='high' to print them.

     Dense  grid:    29445 G-vectors     FFT dimensions: (  36,  36,  54)

     Smooth grid:    13639 G-vectors     FFT dimensions: (  27,  27,  45)

     Estimated max dynamical RAM per process >      54.15MB

     Estimated total allocated dynamical RAM >     216.60MB
     Generating pointlists ...
     new r_m :   0.3384 (alat units)  2.1550 (a.u.) for type    1
     new r_m :   0.3384 (alat units)  2.1550 (a.u.) for type    2

     Check: negative/imaginary core charge=   -0.000007    0.000000

     Initial potential from superposition of free atoms

     starting charge   36.99928, renormalised to   37.00000
     Starting wfc are   28 randomized atomic wfcs
     Checking if some PAW data can be deallocated... 

     total cpu time spent up to now is       48.7 secs

     per-process dynamical memory:    66.4 Mb

     Self-consistent Calculation

     iteration #  1     ecut=    45.00 Ry     beta=0.30
     Davidson diagonalization with overlap
     ethr =  1.00E-02,  avg # of iterations =  3.0

     total cpu time spent up to now is      148.8 secs

     total energy              =   -1835.64105153 Ry
     Harris-Foulkes estimate   =   -1833.79109501 Ry
     estimated scf accuracy    <       2.67998597 Ry

     total magnetization       =     5.20 Bohr mag/cell
     absolute magnetization    =     5.40 Bohr mag/cell

     iteration #  2     ecut=    45.00 Ry     beta=0.30
     Davidson diagonalization with overlap
     ethr =  7.24E-03,  avg # of iterations =  1.0

     total cpu time spent up to now is      226.5 secs

     total energy              =   -1836.65446319 Ry
     Harris-Foulkes estimate   =   -1835.69156930 Ry
     estimated scf accuracy    <       1.32983577 Ry

     total magnetization       =     4.98 Bohr mag/cell
     absolute magnetization    =     5.18 Bohr mag/cell

     iteration #  3     ecut=    45.00 Ry     beta=0.30
     Davidson diagonalization with overlap
     ethr =  3.59E-03,  avg # of iterations =  2.2

     total cpu time spent up to now is      305.2 secs

     total energy              =   -1836.79148616 Ry
     Harris-Foulkes estimate   =   -1836.71742772 Ry
     estimated scf accuracy    <       0.14871044 Ry

     total magnetization       =     4.39 Bohr mag/cell
     absolute magnetization    =     4.66 Bohr mag/cell

     iteration #  4     ecut=    45.00 Ry     beta=0.30
     Davidson diagonalization with overlap
     ethr =  4.02E-04,  avg # of iterations =  2.4

     total cpu time spent up to now is      400.2 secs

     total energy              =   -1836.81477830 Ry
     Harris-Foulkes estimate   =   -1836.82099222 Ry
     estimated scf accuracy    <       0.05230112 Ry

     total magnetization       =     3.95 Bohr mag/cell
     absolute magnetization    =     4.25 Bohr mag/cell

     iteration #  5     ecut=    45.00 Ry     beta=0.30
     Davidson diagonalization with overlap
     ethr =  1.41E-04,  avg # of iterations =  1.4

     total cpu time spent up to now is      475.0 secs

     total energy              =   -1836.81434278 Ry
     Harris-Foulkes estimate   =   -1836.81658179 Ry
     estimated scf accuracy    <       0.01592327 Ry

     total magnetization       =     3.98 Bohr mag/cell
     absolute magnetization    =     4.28 Bohr mag/cell

     iteration #  6     ecut=    45.00 Ry     beta=0.30
     Davidson diagonalization with overlap
     ethr =  4.30E-05,  avg # of iterations =  1.9

     total cpu time spent up to now is      554.5 secs

     total energy              =   -1836.81569400 Ry
     Harris-Foulkes estimate   =   -1836.81569111 Ry
     estimated scf accuracy    <       0.00128525 Ry

     total magnetization       =     3.95 Bohr mag/cell
     absolute magnetization    =     4.26 Bohr mag/cell

     iteration #  7     ecut=    45.00 Ry     beta=0.30
     Davidson diagonalization with overlap
     ethr =  3.47E-06,  avg # of iterations =  3.0

     total cpu time spent up to now is      643.7 secs

     total energy              =   -1836.81611077 Ry
     Harris-Foulkes estimate   =   -1836.81602448 Ry
     estimated scf accuracy    <       0.00012081 Ry

     total magnetization       =     3.96 Bohr mag/cell
     absolute magnetization    =     4.29 Bohr mag/cell

     iteration #  8     ecut=    45.00 Ry     beta=0.30
     Davidson diagonalization with overlap
     ethr =  3.27E-07,  avg # of iterations =  2.1

     total cpu time spent up to now is      729.0 secs

     total energy              =   -1836.81611862 Ry
     Harris-Foulkes estimate   =   -1836.81610872 Ry
     estimated scf accuracy    <       0.00000681 Ry

     total magnetization       =     3.95 Bohr mag/cell
     absolute magnetization    =     4.29 Bohr mag/cell

     iteration #  9     ecut=    45.00 Ry     beta=0.30
     Davidson diagonalization with overlap
     ethr =  1.84E-08,  avg # of iterations =  2.4

     Magnetic moment per site:
     atom:    1    charge:   13.5817    magn:    3.8572    constr:    0.0000
     atom:    2    charge:    9.0717    magn:    0.0430    constr:    0.0000
     atom:    3    charge:    9.0717    magn:    0.0430    constr:    0.0000

     total cpu time spent up to now is      832.4 secs

     End of self-consistent calculation

     Number of k-points >= 100: set verbosity='high' to print the bands.

     the Fermi energy is    15.3242 ev

!    total energy              =   -1836.81611382 Ry
     Harris-Foulkes estimate   =   -1836.81611267 Ry
     estimated scf accuracy    <       0.00000060 Ry

     total all-electron energy =    -78365.265579 Ry

     The total energy is the sum of the following terms:

     one-electron contribution =     -87.51803562 Ry
     hartree contribution      =      81.52993744 Ry
     xc contribution           =     -92.18320826 Ry
     ewald contribution        =    -275.93487887 Ry
     one-center paw contrib.   =   -1462.70992852 Ry

     total magnetization       =     3.95 Bohr mag/cell
     absolute magnetization    =     4.29 Bohr mag/cell

     convergence has been achieved in   9 iterations

     Writing output data file mnau2.save

     init_run     :     31.51s CPU     47.33s WALL (       1 calls)
     electrons    :    534.39s CPU    783.72s WALL (       1 calls)

     Called by init_run:
     wfcinit      :     28.47s CPU     42.74s WALL (       1 calls)
     potinit      :      1.45s CPU      1.96s WALL (       1 calls)

     Called by electrons:
     c_bands      :    449.39s CPU    657.29s WALL (       9 calls)
     sum_band     :     75.24s CPU    112.37s WALL (       9 calls)
     v_of_rho     :      1.45s CPU      2.28s WALL (      10 calls)
     newd         :      0.89s CPU      1.39s WALL (      10 calls)
     PAW_pot      :      7.81s CPU     10.82s WALL (      10 calls)
     mix_rho      :      0.18s CPU      0.32s WALL (       9 calls)

     Called by c_bands:
     init_us_2    :      1.88s CPU      2.98s WALL (    5700 calls)
     cegterg      :    431.87s CPU    631.60s WALL (    2700 calls)

     Called by sum_band:
     sum_band:bec :      0.13s CPU      0.23s WALL (    2700 calls)
     addusdens    :      1.12s CPU      1.85s WALL (       9 calls)

     Called by *egterg:
     h_psi        :    316.18s CPU    462.57s WALL (    8816 calls)
     s_psi        :      6.12s CPU      9.07s WALL (    8816 calls)
     g_psi        :      0.39s CPU      0.61s WALL (    5816 calls)
     cdiaghg      :     32.69s CPU     49.12s WALL (    8516 calls)

     Called by h_psi:
     h_psi:pot    :    315.74s CPU    461.95s WALL (    8816 calls)
     h_psi:calbec :     33.34s CPU     48.59s WALL (    8816 calls)
     vloc_psi     :    276.12s CPU    404.32s WALL (    8816 calls)
     add_vuspsi   :      6.24s CPU      9.00s WALL (    8816 calls)

     General routines
     calbec       :     45.80s CPU     67.06s WALL (   11516 calls)
     fft          :      1.51s CPU      2.24s WALL (     300 calls)
     ffts         :      0.04s CPU      0.07s WALL (      38 calls)
     fftw         :    328.17s CPU    482.16s WALL (  363106 calls)
     interpolate  :      0.12s CPU      0.17s WALL (      38 calls)
     davcio       :      0.01s CPU      0.03s WALL (     300 calls)

     Parallel routines
     fft_scatter  :    282.85s CPU    415.65s WALL (  363444 calls)

     PWSCF        :  9m28.03s CPU    13m54.51s WALL


   This run was terminated on:  15:58:55  24Mar2019            

=------------------------------------------------------------------------------=
   JOB DONE.
=------------------------------------------------------------------------------=
